
     Program PWSCF v.7.3.1 starts on 27Jun2024 at 17:25: 9 

     This program is part of the open-source Quantum ESPRESSO suite
     for quantum simulation of materials; please cite
         "P. Giannozzi et al., J. Phys.:Condens. Matter 21 395502 (2009);
         "P. Giannozzi et al., J. Phys.:Condens. Matter 29 465901 (2017);
         "P. Giannozzi et al., J. Chem. Phys. 152 154105 (2020);
          URL http://www.quantum-espresso.org", 
     in publications or presentations arising from this work. More details at
     http://www.quantum-espresso.org/quote

     Parallel version (MPI), running on    32 processors

     MPI processes distributed on     1 nodes
     182690 MiB available memory on the printing compute node when the environment starts
 
     Waiting for input...
     Reading input from standard input
Warning: card &FCP ignored
Warning: card / ignored
Warning: card &RISM ignored
Warning: card / ignored

     Current dimensions of program PWSCF are:
     Max number of different atomic species (ntypx) = 10
     Max number of k-points (npk) =  40000
     Max angular momentum in pseudopotentials (lmaxx) =  4
     signal trapping enabled: kill the code with -SIGUSR1 to stop cleanly the simulation 
     Message from routine setup:
     using ibrav=0 with symmetry is DISCOURAGED, use correct ibrav instead
 
     K-points division:     npool     =       4
     R & G space division:  proc/nbgrp/npool/nimage =       8
     Subspace diagonalization in iterative solution of the eigenvalue problem:
     a serial algorithm will be used

 
     Parallelization info
     --------------------
     sticks:   dense  smooth     PW     G-vecs:    dense   smooth      PW
     Min         231     115     36                 5119     1802     314
     Max         232     116     37                 5120     1803     316
     Sum        1853     925    293                40957    14419    2521
 
     Using Slab Decomposition
 


     bravais-lattice index     =            0
     lattice parameter (alat)  =       8.4977  a.u.
     unit-cell volume          =     423.6931 (a.u.)^3
     number of atoms/cell      =            6
     number of atomic types    =            2
     number of electrons       =        56.00
     number of Kohn-Sham states=           34
     kinetic-energy cutoff     =      40.0000  Ry
     charge density cutoff     =     320.0000  Ry
     scf convergence threshold =      1.0E-08
     mixing beta               =       0.7000
     number of iterations used =            8  plain     mixing
     energy convergence thresh.=      1.0E-04
     force convergence thresh. =      1.0E-03
     press convergence thresh. =      5.0E-01
     Exchange-correlation= SLA  PW   PSX  PSC
                           (   1   4  10   8   0   0   0)
     nstep                     =           50

     Hubbard projectors: ortho-atomic
     Hubbard parameters of DFT+U (Dudarev formulation) in eV:
     U(Ru-4d) =  2.3650
     alpha(Ru-4d) = -0.0200

     Internal variables: lda_plus_u = T, lda_plus_u_kind = 0

     celldm(1)=   8.497720  celldm(2)=   0.000000  celldm(3)=   0.000000
     celldm(4)=   0.000000  celldm(5)=   0.000000  celldm(6)=   0.000000

     crystal axes: (cart. coord. in units of alat)
               a(1) = (   1.000000   0.000000   0.000000 )  
               a(2) = (   0.000000   1.000000   0.000000 )  
               a(3) = (   0.000000   0.000000   0.690469 )  

     reciprocal axes: (cart. coord. in units 2 pi/alat)
               b(1) = (  1.000000  0.000000  0.000000 )  
               b(2) = (  0.000000  1.000000  0.000000 )  
               b(3) = (  0.000000  0.000000  1.448291 )  


     PseudoPot. # 1 for Ru read from file:
     ./pseudos/ru_pbesol_v1.2.uspp.F.UPF
     MD5 check sum: f86cd6c1aa6b621eb21bb2137df4e461
     Pseudo is Ultrasoft + core correction, Zval = 16.0
     Generated by new atomic code, or converted to UPF format
     Using radial grid of  967 points,  6 beta functions with: 
                l(1) =   0
                l(2) =   0
                l(3) =   1
                l(4) =   1
                l(5) =   2
                l(6) =   2
     Q(r) pseudized with  8 coefficients,  rinner =    1.300   1.300   1.300
                                                       1.300   1.300

     PseudoPot. # 2 for O  read from file:
     ./pseudos/o_pbesol_v1.2.uspp.F.UPF
     MD5 check sum: 501638753501ef6325af9037351f7734
     Pseudo is Ultrasoft + core correction, Zval =  6.0
     Generated by new atomic code, or converted to UPF format
     Using radial grid of  737 points,  5 beta functions with: 
                l(1) =   0
                l(2) =   0
                l(3) =   1
                l(4) =   1
                l(5) =   2
     Q(r) pseudized with  8 coefficients,  rinner =    0.900   0.900   0.900
                                                       0.900   0.900

     atomic species   valence    mass     pseudopotential
     Ru               16.00   101.07000     Ru( 1.00)
     O                 6.00    15.99900     O ( 1.00)

     16 Sym. Ops., with inversion, found ( 8 have fractional translation)



   Cartesian axes

     site n.     atom                  positions (alat units)
         1        Ru     tau(   1) = (   0.0000000   0.0000000   0.0000000  )
         2        Ru     tau(   2) = (   0.5000000   0.5000000   0.3452344  )
         3        O      tau(   3) = (   0.3053000   0.3053000   0.0000000  )
         4        O      tau(   4) = (   0.6947000   0.6947000   0.0000000  )
         5        O      tau(   5) = (   0.8053000   0.1947000   0.3452344  )
         6        O      tau(   6) = (   0.1947000   0.8053000   0.3452344  )

     number of k points=    18  Gaussian smearing, width (Ry)=  0.0100
                       cart. coord. in units 2pi/alat
        k(    1) = (   0.0000000   0.0000000   0.0000000), wk =   0.0312500
        k(    2) = (   0.0000000   0.0000000   0.3620729), wk =   0.0625000
        k(    3) = (   0.0000000   0.0000000  -0.7241457), wk =   0.0312500
        k(    4) = (   0.0000000   0.2500000   0.0000000), wk =   0.1250000
        k(    5) = (   0.0000000   0.2500000   0.3620729), wk =   0.2500000
        k(    6) = (   0.0000000   0.2500000  -0.7241457), wk =   0.1250000
        k(    7) = (   0.0000000  -0.5000000   0.0000000), wk =   0.0625000
        k(    8) = (   0.0000000  -0.5000000   0.3620729), wk =   0.1250000
        k(    9) = (   0.0000000  -0.5000000  -0.7241457), wk =   0.0625000
        k(   10) = (   0.2500000   0.2500000   0.0000000), wk =   0.1250000
        k(   11) = (   0.2500000   0.2500000   0.3620729), wk =   0.2500000
        k(   12) = (   0.2500000   0.2500000  -0.7241457), wk =   0.1250000
        k(   13) = (   0.2500000  -0.5000000   0.0000000), wk =   0.1250000
        k(   14) = (   0.2500000  -0.5000000   0.3620729), wk =   0.2500000
        k(   15) = (   0.2500000  -0.5000000  -0.7241457), wk =   0.1250000
        k(   16) = (  -0.5000000  -0.5000000   0.0000000), wk =   0.0312500
        k(   17) = (  -0.5000000  -0.5000000   0.3620729), wk =   0.0625000
        k(   18) = (  -0.5000000  -0.5000000  -0.7241457), wk =   0.0312500

     Dense  grid:    40957 G-vectors     FFT dimensions: (  50,  50,  36)

     Smooth grid:    14419 G-vectors     FFT dimensions: (  36,  36,  24)

     Estimated max dynamical RAM per process >      14.03 MB

     Estimated total dynamical RAM >     418.99 MB

     Check: negative core charge=   -0.000001

     The initial density is read from file :
     RuO2_out/RuO2_o.save/charge-density


     negative rho (up, down):  1.512E-01 0.000E+00

     STARTING HUBBARD OCCUPATIONS:

     =================== HUBBARD OCCUPATIONS ===================
     ------------------------ ATOM    1 ------------------------
     Tr[ns(  1)] =   6.27649
     eigenvalues:
       0.381  0.415  0.614  0.766  0.964
     eigenvectors (columns):
       0.000 -0.585  0.000  0.000  0.811
      -0.707 -0.000 -0.000 -0.707  0.000
       0.707  0.000 -0.000 -0.707  0.000
      -0.000  0.000  1.000 -0.000 -0.000
      -0.000  0.811 -0.000 -0.000  0.585
     occupation matrix ns (before diag.):
       0.776 -0.000 -0.000 -0.000  0.260
      -0.000  0.573  0.192  0.000  0.000
      -0.000  0.192  0.573  0.000  0.000
      -0.000  0.000  0.000  0.614 -0.000
       0.260  0.000  0.000 -0.000  0.602
     ------------------------ ATOM    2 ------------------------
     Tr[ns(  2)] =   6.27649
     eigenvalues:
       0.381  0.415  0.614  0.766  0.964
     eigenvectors (columns):
       0.000  0.585 -0.000  0.000 -0.811
      -0.707  0.000  0.000 -0.707  0.000
      -0.707  0.000  0.000  0.707  0.000
       0.000  0.000  1.000 -0.000 -0.000
       0.000  0.811 -0.000  0.000  0.585
     occupation matrix ns (before diag.):
       0.776 -0.000 -0.000  0.000 -0.260
      -0.000  0.573 -0.192  0.000  0.000
      -0.000 -0.192  0.573  0.000  0.000
       0.000  0.000  0.000  0.614 -0.000
      -0.260  0.000  0.000 -0.000  0.602

     Number of occupied Hubbard levels =   12.5530

     Atomic wfc used for Hubbard projectors are orthogonalized

     Starting wfcs are   42 randomized atomic wfcs

     total cpu time spent up to now is        0.4 secs

     Self-consistent Calculation

     iteration #  1     ecut=    40.00 Ry     beta= 0.70
     Davidson diagonalization with overlap
     ethr =  1.00E-05,  avg # of iterations =  6.8

     =================== HUBBARD OCCUPATIONS ===================
     ------------------------ ATOM    1 ------------------------
     Tr[ns(  1)] =   6.27695
     eigenvalues:
       0.381  0.415  0.614  0.766  0.964
     eigenvectors (columns):
       0.000 -0.585  0.000  0.000  0.811
      -0.707 -0.000 -0.000 -0.707  0.000
       0.707  0.000 -0.000 -0.707  0.000
      -0.000  0.000  1.000 -0.000 -0.000
      -0.000  0.811 -0.000 -0.000  0.585
     occupation matrix ns (before diag.):
       0.776 -0.000 -0.000 -0.000  0.260
      -0.000  0.573  0.192  0.000  0.000
      -0.000  0.192  0.573  0.000  0.000
      -0.000  0.000  0.000  0.614 -0.000
       0.260  0.000  0.000 -0.000  0.603
     ------------------------ ATOM    2 ------------------------
     Tr[ns(  2)] =   6.27695
     eigenvalues:
       0.381  0.415  0.614  0.766  0.964
     eigenvectors (columns):
       0.000  0.585 -0.000  0.000 -0.811
      -0.707  0.000  0.000 -0.707  0.000
      -0.707  0.000  0.000  0.707  0.000
       0.000  0.000  1.000 -0.000 -0.000
       0.000  0.811 -0.000  0.000  0.585
     occupation matrix ns (before diag.):
       0.776 -0.000 -0.000  0.000 -0.260
      -0.000  0.573 -0.192  0.000  0.000
      -0.000 -0.192  0.573  0.000  0.000
       0.000  0.000  0.000  0.614 -0.000
      -0.260  0.000  0.000 -0.000  0.603

     Number of occupied Hubbard levels =   12.5539

     Threshold (ethr) on eigenvalues was too large:
     Diagonalizing with lowered threshold

     Davidson diagonalization with overlap
     ethr =  5.16E-10,  avg # of iterations =  8.7

     negative rho (up, down):  1.512E-01 0.000E+00

     total cpu time spent up to now is        1.1 secs

     total energy              =    -516.99030163 Ry
     estimated scf accuracy    <       0.00000014 Ry

     iteration #  2     ecut=    40.00 Ry     beta= 0.70
     Davidson diagonalization with overlap
     ethr =  2.52E-10,  avg # of iterations =  2.2

     negative rho (up, down):  1.512E-01 0.000E+00

     total cpu time spent up to now is        1.3 secs

     total energy              =    -516.99030161 Ry
     estimated scf accuracy    <       0.00000082 Ry

     iteration #  3     ecut=    40.00 Ry     beta= 0.70
     Davidson diagonalization with overlap
     ethr =  2.52E-10,  avg # of iterations =  2.1

     negative rho (up, down):  1.512E-01 0.000E+00

     total cpu time spent up to now is        1.4 secs

     End of self-consistent calculation

     =================== HUBBARD OCCUPATIONS ===================
     ------------------------ ATOM    1 ------------------------
     Tr[ns(  1)] =   6.27655
     eigenvalues:
       0.381  0.415  0.614  0.766  0.964
     eigenvectors (columns):
       0.000 -0.585  0.000  0.000  0.811
      -0.707 -0.000 -0.000 -0.707  0.000
       0.707  0.000 -0.000 -0.707  0.000
      -0.000  0.000  1.000 -0.000 -0.000
      -0.000  0.811 -0.000 -0.000  0.585
     occupation matrix ns (before diag.):
       0.776 -0.000 -0.000 -0.000  0.260
      -0.000  0.573  0.192  0.000  0.000
      -0.000  0.192  0.573  0.000  0.000
      -0.000  0.000  0.000  0.614 -0.000
       0.260  0.000  0.000 -0.000  0.603
     ------------------------ ATOM    2 ------------------------
     Tr[ns(  2)] =   6.27655
     eigenvalues:
       0.381  0.415  0.614  0.766  0.964
     eigenvectors (columns):
       0.000  0.585 -0.000  0.000 -0.811
      -0.707  0.000  0.000 -0.707  0.000
      -0.707  0.000  0.000  0.707  0.000
       0.000  0.000  1.000  0.000 -0.000
       0.000  0.811 -0.000  0.000  0.585
     occupation matrix ns (before diag.):
       0.776 -0.000 -0.000  0.000 -0.260
      -0.000  0.573 -0.192  0.000  0.000
      -0.000 -0.192  0.573  0.000  0.000
       0.000  0.000  0.000  0.614 -0.000
      -0.260  0.000  0.000 -0.000  0.603

     Number of occupied Hubbard levels =   12.5531

          k = 0.0000 0.0000 0.0000 (  1803 PWs)   bands (ev):

   -60.3580 -60.3512 -30.7000 -30.7000 -30.2393 -30.2393 -30.1620 -30.1355
    -7.1975  -6.0874  -5.1448  -5.1448   4.3302   4.4523   5.5372   6.2209
     6.2209   8.6826   8.6826   8.7002  10.1831  10.5916  10.5916  10.6007
    11.1152  11.1688  11.1688  11.2787  11.3722  14.5756  14.6478  17.6607
    17.6607  18.8035

          k = 0.0000 0.0000 0.3621 (  1800 PWs)   bands (ev):

   -60.3515 -60.3467 -30.6922 -30.6922 -30.2532 -30.2347 -30.2247 -30.2247
    -6.6916  -5.8578  -5.4004  -5.4004   5.0613   5.1641   6.1871   6.3278
     6.3278   7.3326   8.1955   8.9122   8.9122   9.3559   9.3559  10.1112
    11.4829  11.6509  11.7030  12.7170  12.7170  14.0263  15.5534  16.7561
    16.7561  17.8996

          k = 0.0000 0.0000-0.7241 (  1804 PWs)   bands (ev):

   -60.3437 -60.3437 -30.6844 -30.6844 -30.3372 -30.3372 -30.2100 -30.2100
    -5.8933  -5.8933  -5.6432  -5.6432   5.6921   5.6921   6.5815   6.5815
     7.0897   7.0897   7.9516   7.9516   8.1328   8.1328   9.6513   9.6513
    11.5108  11.5108  12.7825  12.7825  13.5400  13.5400  16.2901  16.2901
    16.3909  16.3909

          k = 0.0000 0.2500 0.0000 (  1823 PWs)   bands (ev):

   -60.3571 -60.3522 -30.6988 -30.6988 -30.2413 -30.2412 -30.1581 -30.1394
    -6.9668  -6.0567  -5.4100  -5.2743   4.8101   4.8532   5.9848   6.2840
     6.3142   7.9050   8.1348   8.4741   9.2321   9.3303  10.1202  10.8549
    11.2492  11.6743  11.8030  11.9376  12.0718  14.1382  15.5010  17.3847
    17.4392  18.5544

          k = 0.0000 0.2500 0.3621 (  1815 PWs)   bands (ev):

   -60.3508 -60.3474 -30.6923 -30.6922 -30.2517 -30.2412 -30.2239 -30.2214
    -6.5178  -5.8014  -5.6077  -5.4793   5.4343   5.4769   6.0221   6.2400
     6.9906   7.1367   7.4285   8.6360   8.7562   9.0886   9.3855  10.4383
    11.2206  11.9591  12.0604  12.3790  13.0011  13.7751  15.9226  16.1204
    16.7760  18.1658

          k = 0.0000 0.2500-0.7241 (  1812 PWs)   bands (ev):

   -60.3437 -60.3437 -30.6860 -30.6860 -30.3366 -30.3366 -30.2093 -30.2093
    -6.0044  -6.0044  -5.5190  -5.5190   5.5188   5.5188   6.1895   6.1895
     7.5213   7.5213   8.1526   8.1526   8.7666   8.7666   9.3013   9.3013
    11.5261  11.5261  12.0366  12.0366  13.7530  13.7530  15.4629  15.4629
    17.5311  17.5311

          k = 0.0000-0.5000 0.0000 (  1790 PWs)   bands (ev):

   -60.3546 -60.3546 -30.6975 -30.6975 -30.2432 -30.2432 -30.1487 -30.1487
    -6.3960  -6.3960  -5.5217  -5.5217   5.4471   5.4471   6.3863   6.3863
     7.1934   7.1934   7.3845   7.3845   8.5339   8.5339  10.3181  10.3181
    11.7836  11.7836  12.2841  12.2841  13.1631  13.1631  17.1449  17.1449
    17.1793  17.1793

          k = 0.0000-0.5000 0.3621 (  1812 PWs)   bands (ev):

   -60.3491 -60.3491 -30.6923 -30.6923 -30.2481 -30.2481 -30.2215 -30.2215
    -6.0793  -6.0793  -5.6512  -5.6512   5.9940   5.9940   6.1873   6.1873
     6.6761   6.6761   7.9328   7.9328   8.4504   8.4504  10.0430  10.0430
    11.7072  11.7072  12.3704  12.3704  13.3588  13.3588  15.7619  15.7619
    17.6570  17.6570

          k = 0.0000-0.5000-0.7241 (  1820 PWs)   bands (ev):

   -60.3437 -60.3437 -30.6876 -30.6876 -30.3360 -30.3360 -30.2086 -30.2086
    -6.0753  -6.0753  -5.4348  -5.4348   5.2445   5.2445   6.2448   6.2448
     7.7072   7.7072   8.4131   8.4131   8.6222   8.6222  10.0560  10.0560
    10.9204  10.9204  11.5352  11.5352  13.8720  13.8720  15.1589  15.1589
    18.1525  18.1525

          k = 0.2500 0.2500 0.0000 (  1804 PWs)   bands (ev):

   -60.3563 -60.3529 -30.7012 -30.6976 -30.2432 -30.2393 -30.1553 -30.1421
    -6.8281  -6.1168  -5.5618  -5.2237   4.4093   5.4916   6.1717   6.3600
     6.3878   7.2830   8.4335   8.4529   9.2567   9.5467   9.7602  10.5858
    10.8434  11.1900  11.8609  12.3050  12.6725  13.9830  15.7661  17.1418
    17.6536  18.0508

          k = 0.2500 0.2500 0.3621 (  1815 PWs)   bands (ev):

   -60.3503 -60.3479 -30.6931 -30.6923 -30.2511 -30.2408 -30.2249 -30.2215
    -6.4029  -5.8022  -5.7395  -5.4682   5.1354   5.8712   6.0160   6.2560
     6.7025   7.2938   7.8225   8.2189   8.7263   9.2227   9.5556  10.3655
    11.3143  11.5288  12.0583  12.6160  13.0553  13.5936  15.7087  16.5199
    16.7580  17.9767

          k = 0.2500 0.2500-0.7241 (  1818 PWs)   bands (ev):

   -60.3437 -60.3437 -30.6876 -30.6850 -30.3388 -30.3343 -30.2104 -30.2087
    -6.0807  -5.8244  -5.7015  -5.4292   5.2784   5.9421   6.1039   6.1129
     6.5631   8.1379   8.2240   8.3313   8.5297   9.2035   9.3186   9.6910
    11.5291  11.5321  11.5378  12.5329  12.9441  13.9739  15.0775  16.2766
    16.8290  18.0107

          k = 0.2500-0.5000 0.0000 (  1798 PWs)   bands (ev):

   -60.3546 -60.3546 -30.6999 -30.6999 -30.2412 -30.2412 -30.1487 -30.1487
    -6.4735  -6.4735  -5.4041  -5.4041   4.8374   4.8374   6.2420   6.2420
     7.3878   7.3878   8.4340   8.4340   8.9549   8.9549   9.7692   9.7692
    11.4805  11.4805  11.8059  11.8059  13.4403  13.4403  16.8515  16.8515
    17.4068  17.4068

          k = 0.2500-0.5000 0.3621 (  1808 PWs)   bands (ev):

   -60.3491 -60.3491 -30.6931 -30.6931 -30.2461 -30.2461 -30.2231 -30.2231
    -6.1213  -6.1213  -5.5886  -5.5886   5.4898   5.4898   5.9167   5.9167
     7.3029   7.3029   8.2808   8.2808   8.7217   8.7217   9.7413   9.7413
    11.8135  11.8135  12.0965  12.0965  13.2169  13.2169  16.1635  16.1635
    17.3679  17.3679

          k = 0.2500-0.5000-0.7241 (  1812 PWs)   bands (ev):

   -60.3437 -60.3437 -30.6866 -30.6866 -30.3365 -30.3365 -30.2098 -30.2098
    -5.9823  -5.9823  -5.5299  -5.5299   5.4112   5.4112   6.1671   6.1671
     7.1737   7.1737   8.2095   8.2095   9.0294   9.0294  10.1993  10.1993
    11.4699  11.4699  11.5489  11.5489  13.5020  13.5020  15.5311  15.5311
    17.6858  17.6858

          k =-0.5000-0.5000 0.0000 (  1784 PWs)   bands (ev):

   -60.3545 -60.3545 -30.7023 -30.7023 -30.2392 -30.2392 -30.1486 -30.1486
    -6.5373  -6.5373  -5.2990  -5.2990   4.4176   4.4176   6.1230   6.1230
     8.2477   8.2477   8.2729   8.2729   9.4889   9.4889  10.0042  10.0042
    10.8113  10.8113  11.2127  11.2127  13.6472  13.6472  16.5667  16.5667
    17.6465  17.6465

          k =-0.5000-0.5000 0.3621 (  1820 PWs)   bands (ev):

   -60.3491 -60.3491 -30.6939 -30.6939 -30.2438 -30.2438 -30.2251 -30.2251
    -6.1555  -6.1555  -5.5335  -5.5335   5.1410   5.1410   5.8007   5.8007
     7.7924   7.7924   8.6349   8.6349   8.6980   8.6980   9.6580   9.6580
    11.5228  11.5228  12.2006  12.2006  13.0339  13.0339  16.7520  16.7520
    16.8598  16.8598

          k =-0.5000-0.5000-0.7241 (  1808 PWs)   bands (ev):

   -60.3437 -60.3437 -30.6855 -30.6855 -30.3370 -30.3370 -30.2109 -30.2109
    -5.7581  -5.7581  -5.7560  -5.7560   5.6976   5.6976   6.0295   6.0295
     6.6932   6.6932   8.1686   8.1686   9.1554   9.1554  10.4156  10.4156
    11.5580  11.5580  12.2929  12.2929  12.7971  12.7971  16.2555  16.2555
    16.8730  16.8730

     the Fermi energy is    12.6430 ev

!    total energy              =    -516.99030172 Ry
     estimated scf accuracy    <          6.7E-11 Ry
     smearing contrib. (-TS)   =      -0.00160431 Ry
     internal energy E=F+TS    =    -516.98869741 Ry

     The total energy is F=E-TS. E is the sum of the following terms:
     one-electron contribution =    -165.58083376 Ry
     hartree contribution      =     114.61246593 Ry
     xc contribution           =     -79.96872501 Ry
     ewald contribution        =    -386.35652920 Ry
     Hubbard energy            =       0.30492462 Ry

     convergence has been achieved in   3 iterations

     negative rho (up, down):  1.512E-01 0.000E+00

     Forces acting on atoms (cartesian axes, Ry/au):

     atom    1 type  1   force =     0.00000000    0.00000000    0.00000000
     atom    2 type  1   force =     0.00000000    0.00000000    0.00000000
     atom    3 type  2   force =    -0.00446808   -0.00446808    0.00000000
     atom    4 type  2   force =     0.00446808    0.00446808    0.00000000
     atom    5 type  2   force =    -0.00446808    0.00446808   -0.00000000
     atom    6 type  2   force =     0.00446808   -0.00446808   -0.00000000

     Total force =     0.012638     Total SCF correction =     0.000002


     Computing stress (Cartesian axis) and pressure


     negative rho (up, down):  1.512E-01 0.000E+00
          total   stress  (Ry/bohr**3)                   (kbar)     P=      -36.45
  -0.00027761   0.00000000   0.00000000          -40.84        0.00        0.00
   0.00000000  -0.00027761   0.00000000            0.00      -40.84        0.00
   0.00000000   0.00000000  -0.00018817            0.00        0.00      -27.68


     BFGS Geometry Optimization
     Energy error            =      0.0E+00 Ry
     Gradient error          =      4.5E-03 Ry/Bohr
     Cell gradient error     =      4.1E+01 kbar

     number of scf cycles    =   1
     number of bfgs steps    =   0

     enthalpy           new  =    -516.9903017235 Ry

     new trust radius        =       0.0285714740 bohr
     new conv_thr            =       0.0000000100 Ry

     new unit-cell volume =    415.86677 a.u.^3 (    61.62510 Ang^3 )
     density =      7.17125 g/cm^3

CELL_PARAMETERS (angstrom)
   4.465590951   0.000000000   0.000000000
   0.000000000   4.465590951   0.000000000
   0.000000000   0.000000000   3.090293615

ATOMIC_POSITIONS (angstrom)
Ru               0.0000000000        0.0000000000        0.0000000000
Ru               2.2327954753        2.2327954753        1.5451468076
O                1.3609969189        1.3609969189        0.0000000000
O                3.1045940317        3.1045940317        0.0000000000
O                3.5937923942        0.8717985564        1.5451468076
O                0.8717985564        3.5937923942        1.5451468076



     Writing config-only to output data dir RuO2_out/RuO2_o.save/ :
     XML data file
     NEW-OLD atomic charge density approx. for the potential

     Check: negative core charge=   -0.000001

     negative rho (up, down):  1.509E-01 0.000E+00

     Atomic wfc used for Hubbard projectors are orthogonalized


     total cpu time spent up to now is        2.3 secs

     Self-consistent Calculation

     iteration #  1     ecut=    40.00 Ry     beta= 0.70
     Davidson diagonalization with overlap
     ethr =  1.00E-06,  avg # of iterations =  5.2

     =================== HUBBARD OCCUPATIONS ===================
     ------------------------ ATOM    1 ------------------------
     Tr[ns(  1)] =   6.27384
     eigenvalues:
       0.382  0.415  0.612  0.765  0.963
     eigenvectors (columns):
       0.000 -0.585  0.000  0.000  0.811
      -0.707 -0.000 -0.000 -0.707  0.000
       0.707  0.000 -0.000 -0.707  0.000
      -0.000  0.000  1.000 -0.000 -0.000
      -0.000  0.811 -0.000 -0.000  0.585
     occupation matrix ns (before diag.):
       0.776 -0.000 -0.000 -0.000  0.260
      -0.000  0.573  0.192  0.000  0.000
      -0.000  0.192  0.573  0.000  0.000
      -0.000  0.000  0.000  0.612 -0.000
       0.260  0.000  0.000 -0.000  0.603
     ------------------------ ATOM    2 ------------------------
     Tr[ns(  2)] =   6.27384
     eigenvalues:
       0.382  0.415  0.612  0.765  0.963
     eigenvectors (columns):
       0.000  0.585 -0.000  0.000 -0.811
      -0.707  0.000  0.000 -0.707  0.000
      -0.707  0.000  0.000  0.707  0.000
       0.000  0.000  1.000  0.000 -0.000
       0.000  0.811 -0.000  0.000  0.585
     occupation matrix ns (before diag.):
       0.776 -0.000 -0.000  0.000 -0.260
      -0.000  0.573 -0.192  0.000  0.000
      -0.000 -0.192  0.573  0.000  0.000
       0.000  0.000  0.000  0.612 -0.000
      -0.260  0.000  0.000 -0.000  0.603

     Number of occupied Hubbard levels =   12.5477

     negative rho (up, down):  1.509E-01 0.000E+00

     total cpu time spent up to now is        2.6 secs

     total energy              =    -516.99097620 Ry
     estimated scf accuracy    <       0.00024512 Ry

     iteration #  2     ecut=    40.00 Ry     beta= 0.70
     Davidson diagonalization with overlap
     ethr =  4.38E-07,  avg # of iterations =  2.2

     negative rho (up, down):  1.509E-01 0.000E+00

     total cpu time spent up to now is        2.7 secs

     total energy              =    -516.99097565 Ry
     estimated scf accuracy    <       0.00038216 Ry

     iteration #  3     ecut=    40.00 Ry     beta= 0.70
     Davidson diagonalization with overlap
     ethr =  4.38E-07,  avg # of iterations =  2.1

     negative rho (up, down):  1.509E-01 0.000E+00

     total cpu time spent up to now is        2.9 secs

     total energy              =    -516.99105786 Ry
     estimated scf accuracy    <       0.00007170 Ry

     iteration #  4     ecut=    40.00 Ry     beta= 0.70
     Davidson diagonalization with overlap
     ethr =  1.28E-07,  avg # of iterations =  2.0

     negative rho (up, down):  1.509E-01 0.000E+00

     total cpu time spent up to now is        3.0 secs

     total energy              =    -516.99106941 Ry
     estimated scf accuracy    <       0.00000024 Ry

     iteration #  5     ecut=    40.00 Ry     beta= 0.70
     Davidson diagonalization with overlap
     ethr =  4.32E-10,  avg # of iterations =  2.2

     negative rho (up, down):  1.509E-01 0.000E+00

     total cpu time spent up to now is        3.2 secs

     total energy              =    -516.99106947 Ry
     estimated scf accuracy    <       0.00000002 Ry

     iteration #  6     ecut=    40.00 Ry     beta= 0.70
     Davidson diagonalization with overlap
     ethr =  4.26E-11,  avg # of iterations =  3.1

     negative rho (up, down):  1.509E-01 0.000E+00

     total cpu time spent up to now is        3.3 secs

     End of self-consistent calculation

     =================== HUBBARD OCCUPATIONS ===================
     ------------------------ ATOM    1 ------------------------
     Tr[ns(  1)] =   6.27866
     eigenvalues:
       0.382  0.416  0.612  0.766  0.963
     eigenvectors (columns):
       0.000 -0.585  0.000  0.000  0.811
      -0.707 -0.000 -0.000 -0.707  0.000
       0.707  0.000 -0.000 -0.707  0.000
      -0.000  0.000  1.000 -0.000 -0.000
      -0.000  0.811 -0.000 -0.000  0.585
     occupation matrix ns (before diag.):
       0.776 -0.000 -0.000 -0.000  0.259
      -0.000  0.574  0.192  0.000  0.000
      -0.000  0.192  0.574  0.000  0.000
      -0.000  0.000  0.000  0.612 -0.000
       0.259  0.000  0.000 -0.000  0.603
     ------------------------ ATOM    2 ------------------------
     Tr[ns(  2)] =   6.27866
     eigenvalues:
       0.382  0.416  0.612  0.766  0.963
     eigenvectors (columns):
       0.000  0.585 -0.000  0.000 -0.811
      -0.707  0.000  0.000 -0.707  0.000
      -0.707  0.000  0.000  0.707  0.000
       0.000  0.000  1.000  0.000 -0.000
       0.000  0.811 -0.000  0.000  0.585
     occupation matrix ns (before diag.):
       0.776 -0.000 -0.000  0.000 -0.259
      -0.000  0.574 -0.192  0.000  0.000
      -0.000 -0.192  0.574  0.000  0.000
       0.000  0.000  0.000  0.612 -0.000
      -0.259  0.000  0.000 -0.000  0.603

     Number of occupied Hubbard levels =   12.5573

          k = 0.0000 0.0000 0.0000 (  1803 PWs)   bands (ev):

   -59.9890 -59.9813 -30.3496 -30.3496 -29.8785 -29.8785 -29.7978 -29.7687
    -6.9589  -5.8247  -4.8284  -4.8284   4.5597   4.6605   5.7337   6.4730
     6.4730   8.9943   8.9943   8.9970  10.5140  10.9250  10.9250  10.9450
    11.4528  11.5302  11.5302  11.6407  11.7320  15.0302  15.1530  18.1379
    18.1379  19.2901

          k = 0.0000 0.0000 0.3638 (  1800 PWs)   bands (ev):

   -59.9819 -59.9765 -30.3411 -30.3411 -29.8946 -29.8743 -29.8631 -29.8631
    -6.4381  -5.5853  -5.0974  -5.0974   5.2788   5.4054   6.3939   6.5788
     6.5788   7.6164   8.5001   9.2253   9.2253   9.6808   9.6808  10.3937
    11.8509  12.0489  12.0822  13.1067  13.1067  14.4694  16.0672  17.2255
    17.2255  18.4581

          k = 0.0000 0.0000-0.7276 (  1804 PWs)   bands (ev):

   -59.9734 -59.9734 -30.3326 -30.3326 -29.9835 -29.9835 -29.8476 -29.8476
    -5.6174  -5.6174  -5.3523  -5.3523   5.9232   5.9232   6.8230   6.8230
     7.3860   7.3860   8.1891   8.1891   8.4432   8.4432   9.9878   9.9878
    11.8884  11.8884  13.2012  13.2012  13.9535  13.9535  16.7570  16.7570
    16.9134  16.9134

          k = 0.0000 0.2517 0.0000 (  1823 PWs)   bands (ev):

   -59.9879 -59.9824 -30.3482 -30.3481 -29.8809 -29.8807 -29.7935 -29.7730
    -6.7185  -5.7827  -5.1150  -4.9699   5.0557   5.0807   6.1964   6.5395
     6.5716   8.1876   8.4319   8.7563   9.5429   9.6313  10.4425  11.1962
    11.6126  12.0595  12.1782  12.3330  12.4419  14.5743  16.0138  17.8443
    17.9028  19.1050

          k = 0.0000 0.2517 0.3638 (  1815 PWs)   bands (ev):

   -59.9811 -59.9773 -30.3413 -30.3411 -29.8928 -29.8814 -29.8624 -29.8595
    -6.2580  -5.5267  -5.3118  -5.1820   5.6627   5.7232   6.2483   6.4893
     7.2355   7.4203   7.7111   8.9397   9.0637   9.4026   9.7142  10.7467
    11.5953  12.3399  12.4448  12.7603  13.4110  14.2080  16.4307  16.5859
    17.2502  18.7091

          k = 0.0000 0.2517-0.7276 (  1812 PWs)   bands (ev):

   -59.9734 -59.9734 -30.3345 -30.3345 -29.9828 -29.9828 -29.8468 -29.8468
    -5.7402  -5.7402  -5.2148  -5.2148   5.7412   5.7412   6.4340   6.4340
     7.8036   7.8036   8.4569   8.4569   9.0482   9.0482   9.6266   9.6266
    11.9044  11.9044  12.4249  12.4249  14.1775  14.1775  15.9437  15.9437
    18.0513  18.0513

          k = 0.0000-0.5035 0.0000 (  1790 PWs)   bands (ev):

   -59.9851 -59.9851 -30.3467 -30.3467 -29.8831 -29.8831 -29.7832 -29.7832
    -6.1218  -6.1218  -5.2408  -5.2408   5.7102   5.7102   6.6482   6.6482
     7.4435   7.4435   7.6539   7.6539   8.8099   8.8099  10.6454  10.6454
    12.1632  12.1632  12.6982  12.6982  13.5654  13.5654  17.5885  17.5885
    17.7151  17.7151

          k = 0.0000-0.5035 0.3638 (  1812 PWs)   bands (ev):

   -59.9792 -59.9792 -30.3412 -30.3412 -29.8889 -29.8889 -29.8597 -29.8597
    -5.8037  -5.8037  -5.3652  -5.3652   6.2329   6.2329   6.4343   6.4343
     6.9528   6.9528   8.2066   8.2066   8.7475   8.7475  10.3809  10.3809
    12.0702  12.0702  12.7628  12.7628  13.7804  13.7804  16.2246  16.2246
    18.1785  18.1785

          k = 0.0000-0.5035-0.7276 (  1820 PWs)   bands (ev):

   -59.9734 -59.9734 -30.3364 -30.3364 -29.9820 -29.9820 -29.8461 -29.8461
    -5.8178  -5.8178  -5.1222  -5.1222   5.4606   5.4606   6.4844   6.4844
     8.0071   8.0071   8.7136   8.7136   8.9285   8.9285  10.3692  10.3692
    11.2790  11.2790  11.9139  11.9139  14.3005  14.3005  15.6374  15.6374
    18.6872  18.6872

          k = 0.2517 0.2517 0.0000 (  1804 PWs)   bands (ev):

   -59.9871 -59.9832 -30.3510 -30.3467 -29.8831 -29.8785 -29.7905 -29.7759
    -6.5760  -5.8365  -5.2849  -4.9121   4.6287   5.7593   6.4212   6.5818
     6.6498   7.5512   8.7089   8.7443   9.5539   9.8621  10.0950  10.9127
    11.1956  11.5530  12.2416  12.7197  13.0591  14.4137  16.2849  17.5851
    18.1304  18.6047

          k = 0.2517 0.2517 0.3638 (  1815 PWs)   bands (ev):

   -59.9806 -59.9779 -30.3421 -30.3412 -29.8923 -29.8809 -29.8634 -29.8597
    -6.1392  -5.5222  -5.4547  -5.1691   5.3669   6.1000   6.2579   6.5101
     6.9759   7.5431   8.1179   8.5155   9.0225   9.5383   9.8894  10.6954
    11.6707  11.8971  12.4330  13.0208  13.4642  14.0188  16.1745  17.0389
    17.2266  18.5108

          k = 0.2517 0.2517-0.7276 (  1818 PWs)   bands (ev):

   -59.9734 -59.9734 -30.3364 -30.3333 -29.9853 -29.9801 -29.8481 -29.8461
    -5.8231  -5.5447  -5.4140  -5.1165   5.4964   6.1638   6.3474   6.3559
     6.8377   8.4464   8.5482   8.6343   8.7897   9.5384   9.6155   9.9934
    11.9105  11.9169  11.9169  12.9400  13.3256  14.4079  15.5538  16.7437
    17.3671  18.5342

          k = 0.2517-0.5035 0.0000 (  1798 PWs)   bands (ev):

   -59.9851 -59.9851 -30.3495 -30.3495 -29.8807 -29.8807 -29.7832 -29.7832
    -6.2092  -6.2092  -5.1087  -5.1087   5.0739   5.0739   6.4952   6.4952
     7.6431   7.6431   8.7364   8.7364   9.2492   9.2492  10.0793  10.0793
    11.8502  11.8502  12.1971  12.1971  13.8518  13.8518  17.3900  17.3900
    17.8681  17.8681

          k = 0.2517-0.5035 0.3638 (  1808 PWs)   bands (ev):

   -59.9792 -59.9792 -30.3421 -30.3421 -29.8868 -29.8868 -29.8615 -29.8615
    -5.8488  -5.8488  -5.2975  -5.2975   5.7297   5.7297   6.1529   6.1529
     7.5825   7.5825   8.5594   8.5594   9.0295   9.0295  10.0723  10.0723
    12.1821  12.1821  12.4798  12.4798  13.6305  13.6305  16.6406  16.6406
    17.8864  17.8864

          k = 0.2517-0.5035-0.7276 (  1812 PWs)   bands (ev):

   -59.9734 -59.9734 -30.3352 -30.3352 -29.9826 -29.9826 -29.8474 -29.8474
    -5.7172  -5.7172  -5.2259  -5.2259   5.6308   5.6308   6.4137   6.4137
     7.4522   7.4522   8.5264   8.5264   9.3151   9.3151  10.5342  10.5342
    11.8398  11.8398  11.9284  11.9284  13.9168  13.9168  16.0102  16.0102
    18.2121  18.2121

          k =-0.5035-0.5035 0.0000 (  1784 PWs)   bands (ev):

   -59.9851 -59.9851 -30.3523 -30.3523 -29.8784 -29.8784 -29.7831 -29.7831
    -6.2800  -6.2800  -4.9919  -4.9919   4.6373   4.6373   6.3699   6.3699
     8.5243   8.5243   8.5586   8.5586   9.8056   9.8056  10.3313  10.3313
    11.1621  11.1621  11.5774  11.5774  14.0661  14.0661  17.1087  17.1087
    18.1230  18.1230

          k =-0.5035-0.5035 0.3638 (  1820 PWs)   bands (ev):

   -59.9792 -59.9792 -30.3431 -30.3431 -29.8843 -29.8843 -29.8636 -29.8636
    -5.8854  -5.8854  -5.2382  -5.2382   5.3743   5.3743   6.0321   6.0321
     8.0859   8.0859   8.9148   8.9148   9.0050   9.0050   9.9883   9.9883
    11.8951  11.8951  12.5768  12.5768  13.4405  13.4405  17.2198  17.2198
    17.3976  17.3976

          k =-0.5035-0.5035-0.7276 (  1808 PWs)   bands (ev):

   -59.9734 -59.9734 -30.3338 -30.3338 -29.9832 -29.9832 -29.8487 -29.8487
    -5.4737  -5.4737  -5.4725  -5.4725   5.9164   5.9164   6.2860   6.2860
     6.9635   6.9635   8.4802   8.4802   9.4370   9.4370  10.7669  10.7669
    11.9383  11.9383  12.6893  12.6893  13.1825  13.1825  16.7228  16.7228
    17.4038  17.4038

     the Fermi energy is    13.0413 ev

!    total energy              =    -516.99106947 Ry
     estimated scf accuracy    <          1.1E-09 Ry
     smearing contrib. (-TS)   =      -0.00165057 Ry
     internal energy E=F+TS    =    -516.98941890 Ry

     The total energy is F=E-TS. E is the sum of the following terms:
     one-electron contribution =    -161.74679514 Ry
     hartree contribution      =     113.41006227 Ry
     xc contribution           =     -80.06442848 Ry
     ewald contribution        =    -388.89367781 Ry
     Hubbard energy            =       0.30542027 Ry

     convergence has been achieved in   6 iterations

     negative rho (up, down):  1.509E-01 0.000E+00

     Forces acting on atoms (cartesian axes, Ry/au):

     atom    1 type  1   force =     0.00000000    0.00000000    0.00000000
     atom    2 type  1   force =     0.00000000    0.00000000    0.00000000
     atom    3 type  2   force =    -0.00208628   -0.00208628   -0.00000000
     atom    4 type  2   force =     0.00208628    0.00208628   -0.00000000
     atom    5 type  2   force =    -0.00208628    0.00208628    0.00000000
     atom    6 type  2   force =     0.00208628   -0.00208628    0.00000000

     Total force =     0.005901     Total SCF correction =     0.000017


     Computing stress (Cartesian axis) and pressure


     negative rho (up, down):  1.509E-01 0.000E+00
          total   stress  (Ry/bohr**3)                   (kbar)     P=       15.03
   0.00007445   0.00000000   0.00000000           10.95        0.00        0.00
   0.00000000   0.00007445   0.00000000            0.00       10.95        0.00
   0.00000000   0.00000000   0.00015761            0.00        0.00       23.19

     Energy error            =      7.7E-04 Ry
     Gradient error          =      2.1E-03 Ry/Bohr
     Cell gradient error     =      2.3E+01 kbar

     number of scf cycles    =   2
     number of bfgs steps    =   1

     enthalpy           old  =    -516.9903017235 Ry
     enthalpy           new  =    -516.9910694743 Ry

     CASE: enthalpy          _new < enthalpy          _old

     new trust radius        =       0.0111372763 bohr
     new conv_thr            =       0.0000000002 Ry

     new unit-cell volume =    417.87134 a.u.^3 (    61.92214 Ang^3 )
     density =      7.13685 g/cm^3

CELL_PARAMETERS (angstrom)
   4.470241313   0.000000000   0.000000000
   0.000000000   4.470241313   0.000000000
   0.000000000   0.000000000   3.098732239

ATOMIC_POSITIONS (angstrom)
Ru               0.0000000000        0.0000000000        0.0000000000
Ru               2.2351206566        2.2351206566        1.5493661196
O                1.3614553563        1.3614553563       -0.0000000000
O                3.1087859569        3.1087859569       -0.0000000000
O                3.5965760129        0.8736653003        1.5493661196
O                0.8736653003        3.5965760129        1.5493661196



     Writing config-only to output data dir RuO2_out/RuO2_o.save/ :
     XML data file
     NEW-OLD atomic charge density approx. for the potential

     Check: negative core charge=   -0.000001

     negative rho (up, down):  1.510E-01 0.000E+00

     Atomic wfc used for Hubbard projectors are orthogonalized


     total cpu time spent up to now is        4.0 secs

     Self-consistent Calculation

     iteration #  1     ecut=    40.00 Ry     beta= 0.70
     Davidson diagonalization with overlap
     ethr =  1.00E-06,  avg # of iterations =  3.0

     =================== HUBBARD OCCUPATIONS ===================
     ------------------------ ATOM    1 ------------------------
     Tr[ns(  1)] =   6.27871
     eigenvalues:
       0.382  0.416  0.611  0.767  0.963
     eigenvectors (columns):
       0.000 -0.585  0.000  0.000  0.811
      -0.707 -0.000 -0.000 -0.707  0.000
       0.707  0.000 -0.000 -0.707  0.000
      -0.000  0.000  1.000 -0.000 -0.000
      -0.000  0.811 -0.000 -0.000  0.585
     occupation matrix ns (before diag.):
       0.776 -0.000 -0.000 -0.000  0.260
      -0.000  0.575  0.193  0.000  0.000
      -0.000  0.193  0.575  0.000  0.000
      -0.000  0.000  0.000  0.611 -0.000
       0.260  0.000  0.000 -0.000  0.603
     ------------------------ ATOM    2 ------------------------
     Tr[ns(  2)] =   6.27871
     eigenvalues:
       0.382  0.416  0.611  0.767  0.963
     eigenvectors (columns):
       0.000  0.585 -0.000  0.000 -0.811
      -0.707  0.000  0.000 -0.707  0.000
      -0.707  0.000  0.000  0.707  0.000
       0.000  0.000  1.000  0.000 -0.000
       0.000  0.811 -0.000  0.000  0.585
     occupation matrix ns (before diag.):
       0.776 -0.000 -0.000  0.000 -0.260
      -0.000  0.575 -0.193  0.000  0.000
      -0.000 -0.193  0.575  0.000  0.000
       0.000  0.000  0.000  0.611 -0.000
      -0.260  0.000  0.000 -0.000  0.603

     Number of occupied Hubbard levels =   12.5574

     Threshold (ethr) on eigenvalues was too large:
     Diagonalizing with lowered threshold

     Davidson diagonalization with overlap
     ethr =  3.94E-08,  avg # of iterations =  3.9

     negative rho (up, down):  1.510E-01 0.000E+00

     total cpu time spent up to now is        4.3 secs

     total energy              =    -516.99120523 Ry
     estimated scf accuracy    <       0.00002289 Ry

     iteration #  2     ecut=    40.00 Ry     beta= 0.70
     Davidson diagonalization with overlap
     ethr =  4.09E-08,  avg # of iterations =  2.1

     negative rho (up, down):  1.510E-01 0.000E+00

     total cpu time spent up to now is        4.5 secs

     total energy              =    -516.99120600 Ry
     estimated scf accuracy    <       0.00002235 Ry

     iteration #  3     ecut=    40.00 Ry     beta= 0.70
     Davidson diagonalization with overlap
     ethr =  3.99E-08,  avg # of iterations =  2.1

     negative rho (up, down):  1.510E-01 0.000E+00

     total cpu time spent up to now is        4.6 secs

     total energy              =    -516.99121071 Ry
     estimated scf accuracy    <       0.00000900 Ry

     iteration #  4     ecut=    40.00 Ry     beta= 0.70
     Davidson diagonalization with overlap
     ethr =  1.61E-08,  avg # of iterations =  2.0

     negative rho (up, down):  1.510E-01 0.000E+00

     total cpu time spent up to now is        4.8 secs

     total energy              =    -516.99121239 Ry
     estimated scf accuracy    <       0.00000025 Ry

     iteration #  5     ecut=    40.00 Ry     beta= 0.70
     Davidson diagonalization with overlap
     ethr =  4.51E-10,  avg # of iterations =  1.2

     negative rho (up, down):  1.510E-01 0.000E+00

     total cpu time spent up to now is        4.9 secs

     total energy              =    -516.99121244 Ry
     estimated scf accuracy    <       0.00000002 Ry

     iteration #  6     ecut=    40.00 Ry     beta= 0.70
     Davidson diagonalization with overlap
     ethr =  3.68E-11,  avg # of iterations =  2.1

     negative rho (up, down):  1.510E-01 0.000E+00

     total cpu time spent up to now is        5.0 secs

     total energy              =    -516.99121244 Ry
     estimated scf accuracy    <          1.0E-09 Ry

     iteration #  7     ecut=    40.00 Ry     beta= 0.70
     Davidson diagonalization with overlap
     ethr =  1.80E-12,  avg # of iterations =  2.1

     negative rho (up, down):  1.510E-01 0.000E+00

     total cpu time spent up to now is        5.2 secs

     End of self-consistent calculation

     =================== HUBBARD OCCUPATIONS ===================
     ------------------------ ATOM    1 ------------------------
     Tr[ns(  1)] =   6.27761
     eigenvalues:
       0.382  0.416  0.610  0.767  0.964
     eigenvectors (columns):
       0.000 -0.585  0.000  0.000  0.811
      -0.707 -0.000 -0.000 -0.707  0.000
       0.707  0.000 -0.000 -0.707  0.000
      -0.000  0.000  1.000 -0.000 -0.000
      -0.000  0.811 -0.000 -0.000  0.585
     occupation matrix ns (before diag.):
       0.776 -0.000 -0.000 -0.000  0.260
      -0.000  0.575  0.193  0.000  0.000
      -0.000  0.193  0.575  0.000  0.000
      -0.000  0.000  0.000  0.610 -0.000
       0.260  0.000  0.000 -0.000  0.603
     ------------------------ ATOM    2 ------------------------
     Tr[ns(  2)] =   6.27761
     eigenvalues:
       0.382  0.416  0.610  0.767  0.964
     eigenvectors (columns):
       0.000  0.585 -0.000  0.000 -0.811
      -0.707  0.000  0.000 -0.707  0.000
      -0.707  0.000  0.000  0.707  0.000
       0.000  0.000  1.000 -0.000 -0.000
       0.000  0.811 -0.000  0.000  0.585
     occupation matrix ns (before diag.):
       0.776 -0.000 -0.000  0.000 -0.260
      -0.000  0.575 -0.193  0.000  0.000
      -0.000 -0.193  0.575  0.000  0.000
       0.000  0.000  0.000  0.610 -0.000
      -0.260  0.000  0.000 -0.000  0.603

     Number of occupied Hubbard levels =   12.5552

          k = 0.0000 0.0000 0.0000 (  1803 PWs)   bands (ev):

   -60.0866 -60.0791 -30.4463 -30.4463 -29.9753 -29.9753 -29.8893 -29.8606
    -7.0173  -5.8875  -4.9075  -4.9075   4.5055   4.6105   5.6803   6.4175
     6.4175   8.9094   8.9230   8.9230  10.4293  10.8417  10.8417  10.8507
    11.3566  11.4333  11.4333  11.5571  11.6284  14.9152  15.0357  17.9885
    17.9885  19.1548

          k = 0.0000 0.0000 0.3628 (  1800 PWs)   bands (ev):

   -60.0799 -60.0745 -30.4381 -30.4381 -29.9828 -29.9628 -29.9605 -29.9605
    -6.5051  -5.6565  -5.1690  -5.1690   5.2187   5.3413   6.3349   6.5202
     6.5202   7.5452   8.4315   9.1582   9.1582   9.5967   9.5967  10.2968
    11.7453  11.9733  11.9733  13.0004  13.0004  14.3626  15.9443  17.0796
    17.0796  18.3392

          k = 0.0000 0.0000-0.7256 (  1804 PWs)   bands (ev):

   -60.0716 -60.0716 -30.4299 -30.4299 -30.0686 -30.0686 -29.9455 -29.9455
    -5.6955  -5.6955  -5.4170  -5.4170   5.8558   5.8558   6.7626   6.7626
     7.3178   7.3178   8.1140   8.1140   8.3721   8.3721   9.9105   9.9105
    11.7807  11.7807  13.1116  13.1116  13.8415  13.8415  16.6028  16.6028
    16.7979  16.7979

          k = 0.0000 0.2515 0.0000 (  1823 PWs)   bands (ev):

   -60.0856 -60.0802 -30.4450 -30.4449 -29.9776 -29.9775 -29.8851 -29.8648
    -6.7781  -5.8447  -5.1932  -5.0474   5.0014   5.0298   6.1402   6.4847
     6.5176   8.1151   8.3563   8.6678   9.4667   9.5442  10.3644  11.1141
    11.5124  11.9624  12.0711  12.2377  12.3424  14.4617  15.8959  17.6954
    17.7541  18.9676

          k = 0.0000 0.2515 0.3628 (  1815 PWs)   bands (ev):

   -60.0791 -60.0753 -30.4382 -30.4381 -29.9818 -29.9725 -29.9590 -29.9544
    -6.3256  -5.5979  -5.3826  -5.2533   5.6019   5.6601   6.1904   6.4305
     7.1721   7.3530   7.6452   8.8558   8.9806   9.3309   9.6454  10.6584
    11.5107  12.2292  12.3341  12.6544  13.3073  14.1021  16.3048  16.4482
    17.1113  18.5810

          k = 0.0000 0.2515-0.7256 (  1812 PWs)   bands (ev):

   -60.0716 -60.0716 -30.4317 -30.4317 -30.0680 -30.0680 -29.9447 -29.9447
    -5.8091  -5.8091  -5.2894  -5.2894   5.6839   5.6839   6.3646   6.3646
     7.7351   7.7351   8.3829   8.3829   8.9704   8.9704   9.5534   9.5534
    11.7966  11.7966  12.3357  12.3357  14.0671  14.0671  15.8045  15.8045
    17.9188  17.9188

          k = 0.0000-0.5030 0.0000 (  1790 PWs)   bands (ev):

   -60.0829 -60.0829 -30.4435 -30.4435 -29.9798 -29.9798 -29.8749 -29.8749
    -6.1836  -6.1836  -5.3167  -5.3167   5.6606   5.6606   6.5951   6.5951
     7.3717   7.3717   7.5822   7.5822   8.7212   8.7212  10.5672  10.5672
    12.0566  12.0566  12.6019  12.6019  13.4583  13.4583  17.4401  17.4401
    17.5895  17.5895

          k = 0.0000-0.5030 0.3628 (  1812 PWs)   bands (ev):

   -60.0772 -60.0772 -30.4382 -30.4382 -29.9794 -29.9794 -29.9549 -29.9549
    -5.8731  -5.8731  -5.4361  -5.4361   6.1727   6.1727   6.3768   6.3768
     6.8852   6.8852   8.1307   8.1307   8.6721   8.6721  10.3069  10.3069
    11.9672  11.9672  12.6516  12.6516  13.6759  13.6759  16.0902  16.0902
    18.0493  18.0493

          k = 0.0000-0.5030-0.7256 (  1820 PWs)   bands (ev):

   -60.0716 -60.0716 -30.4335 -30.4335 -30.0674 -30.0674 -29.9439 -29.9439
    -5.8829  -5.8829  -5.2013  -5.2013   5.4062   5.4062   6.4170   6.4170
     7.9294   7.9294   8.6440   8.6440   8.8525   8.8525  10.2913  10.2913
    11.1944  11.1944  11.8058  11.8058  14.1894  14.1894  15.4973  15.4973
    18.5528  18.5528

          k = 0.2515 0.2515 0.0000 (  1804 PWs)   bands (ev):

   -60.0848 -60.0810 -30.4476 -30.4435 -29.9798 -29.9753 -29.8821 -29.8677
    -6.6363  -5.8979  -5.3618  -4.9906   4.5762   5.7093   6.3656   6.5239
     6.5968   7.4710   8.6199   8.6749   9.4794   9.7757  10.0189  10.8270
    11.0988  11.4563  12.1340  12.6236  12.9566  14.3022  16.1628  17.4367
    17.9810  18.4720

          k = 0.2515 0.2515 0.3628 (  1815 PWs)   bands (ev):

   -60.0785 -60.0759 -30.4390 -30.4382 -29.9820 -29.9702 -29.9608 -29.9548
    -6.2075  -5.5932  -5.5252  -5.2403   5.3045   6.0430   6.1993   6.4499
     6.9070   7.4783   8.0491   8.4336   8.9522   9.4558   9.8183  10.6155
    11.5763  11.7902  12.3210  12.9126  13.3626  13.9142  16.0416  16.9129
    17.0809  18.3826

          k = 0.2515 0.2515-0.7256 (  1818 PWs)   bands (ev):

   -60.0717 -60.0716 -30.4335 -30.4305 -30.0705 -30.0654 -29.9461 -29.9439
    -5.8883  -5.6232  -5.4785  -5.1955   5.4418   6.1042   6.2798   6.2834
     6.7731   8.3761   8.4722   8.5620   8.7110   9.4703   9.5308   9.9179
    11.8023  11.8089  11.8334  12.8532  13.2132  14.2964  15.4150  16.5894
    17.2510  18.3990

          k = 0.2515-0.5030 0.0000 (  1798 PWs)   bands (ev):

   -60.0829 -60.0829 -30.4462 -30.4462 -29.9775 -29.9775 -29.8749 -29.8749
    -6.2707  -6.2707  -5.1855  -5.1855   5.0207   5.0207   6.4403   6.4403
     7.5785   7.5785   8.6608   8.6608   9.1618   9.1618  10.0008  10.0008
    11.7477  11.7477  12.1008  12.1008  13.7438  13.7438  17.2627  17.2627
    17.7194  17.7194

          k = 0.2515-0.5030 0.3628 (  1808 PWs)   bands (ev):

   -60.0772 -60.0772 -30.4391 -30.4391 -29.9766 -29.9766 -29.9574 -29.9574
    -5.9184  -5.9184  -5.3684  -5.3684   5.6670   5.6670   6.0952   6.0952
     7.5152   7.5152   8.4883   8.4883   8.9502   8.9502   9.9977   9.9977
    12.0755  12.0755  12.3738  12.3738  13.5285  13.5285  16.5045  16.5045
    17.7557  17.7557

          k = 0.2515-0.5030-0.7256 (  1812 PWs)   bands (ev):

   -60.0716 -60.0716 -30.4323 -30.4323 -30.0679 -30.0679 -29.9452 -29.9452
    -5.7841  -5.7841  -5.3027  -5.3027   5.5750   5.5750   6.3407   6.3407
     7.3870   7.3870   8.4541   8.4541   9.2343   9.2343  10.4568  10.4568
    11.7528  11.7528  11.8208  11.8208  13.8086  13.8086  15.8688  15.8688
    18.0810  18.0810

          k =-0.5030-0.5030 0.0000 (  1784 PWs)   bands (ev):

   -60.0828 -60.0828 -30.4489 -30.4489 -29.9753 -29.9753 -29.8748 -29.8748
    -6.3411  -6.3411  -5.0698  -5.0698   4.5842   4.5842   6.3140   6.3140
     8.4576   8.4576   8.4914   8.4914   9.7191   9.7191  10.2451  10.2451
    11.0649  11.0649  11.4809  11.4809  13.9570  13.9570  16.9792  16.9792
    17.9737  17.9737

          k =-0.5030-0.5030 0.3628 (  1820 PWs)   bands (ev):

   -60.0772 -60.0772 -30.4400 -30.4400 -29.9726 -29.9726 -29.9610 -29.9610
    -5.9551  -5.9551  -5.3090  -5.3090   5.3112   5.3112   5.9752   5.9752
     8.0159   8.0159   8.8421   8.8421   8.9347   8.9347   9.9066   9.9066
    11.7880  11.7880  12.4726  12.4726  13.3421  13.3421  17.0741  17.0741
    17.2731  17.2731

          k =-0.5030-0.5030-0.7256 (  1808 PWs)   bands (ev):

   -60.0716 -60.0716 -30.4311 -30.4311 -30.0683 -30.0683 -29.9466 -29.9466
    -5.5513  -5.5513  -5.5380  -5.5380   5.8576   5.8576   6.2104   6.2104
     6.9030   6.9030   8.4101   8.4101   9.3544   9.3544  10.6886  10.6886
    11.8300  11.8300  12.6051  12.6051  13.0727  13.0727  16.5684  16.5684
    17.2877  17.2877

     the Fermi energy is    12.9378 ev

!    total energy              =    -516.99121244 Ry
     estimated scf accuracy    <          7.7E-11 Ry
     smearing contrib. (-TS)   =      -0.00167962 Ry
     internal energy E=F+TS    =    -516.98953282 Ry

     The total energy is F=E-TS. E is the sum of the following terms:
     one-electron contribution =    -162.51872137 Ry
     hartree contribution      =     113.61043304 Ry
     xc contribution           =     -80.03703887 Ry
     ewald contribution        =    -388.34919852 Ry
     Hubbard energy            =       0.30499289 Ry

     convergence has been achieved in   7 iterations

     negative rho (up, down):  1.510E-01 0.000E+00

     Forces acting on atoms (cartesian axes, Ry/au):

     atom    1 type  1   force =     0.00000000    0.00000000    0.00000000
     atom    2 type  1   force =     0.00000000    0.00000000    0.00000000
     atom    3 type  2   force =    -0.00054171   -0.00054171    0.00000000
     atom    4 type  2   force =     0.00054171    0.00054171    0.00000000
     atom    5 type  2   force =    -0.00054171    0.00054171    0.00000000
     atom    6 type  2   force =     0.00054171   -0.00054171    0.00000000

     Total force =     0.001532     Total SCF correction =     0.000008


     Computing stress (Cartesian axis) and pressure


     negative rho (up, down):  1.510E-01 0.000E+00
          total   stress  (Ry/bohr**3)                   (kbar)     P=        0.20
  -0.00000065   0.00000000   0.00000000           -0.10        0.00        0.00
   0.00000000  -0.00000065   0.00000000            0.00       -0.10        0.00
   0.00000000   0.00000000   0.00000545            0.00        0.00        0.80

     Energy error            =      1.4E-04 Ry
     Gradient error          =      5.4E-04 Ry/Bohr
     Cell gradient error     =      8.0E-01 kbar

     number of scf cycles    =   3
     number of bfgs steps    =   2

     enthalpy           old  =    -516.9910694743 Ry
     enthalpy           new  =    -516.9912124428 Ry

     CASE: enthalpy          _new < enthalpy          _old

     new trust radius        =       0.0008817495 bohr
     new conv_thr            =            1.0E-10 Ry

     new unit-cell volume =    417.88608 a.u.^3 (    61.92433 Ang^3 )
     density =      7.13660 g/cm^3

CELL_PARAMETERS (angstrom)
   4.469994353   0.000000000   0.000000000
   0.000000000   4.469994353   0.000000000
   0.000000000   0.000000000   3.099183972

ATOMIC_POSITIONS (angstrom)
Ru               0.0000000000        0.0000000000        0.0000000000
Ru               2.2349971763        2.2349971763        1.5495919858
O                1.3610502230        1.3610502230       -0.0000000000
O                3.1089441295        3.1089441295       -0.0000000000
O                3.5960473993        0.8739469533        1.5495919858
O                0.8739469533        3.5960473993        1.5495919858



     Writing config-only to output data dir RuO2_out/RuO2_o.save/ :
     XML data file
     NEW-OLD atomic charge density approx. for the potential

     Check: negative core charge=   -0.000001

     negative rho (up, down):  1.510E-01 0.000E+00

     Atomic wfc used for Hubbard projectors are orthogonalized


     total cpu time spent up to now is        5.8 secs

     Self-consistent Calculation

     iteration #  1     ecut=    40.00 Ry     beta= 0.70
     Davidson diagonalization with overlap
     ethr =  1.00E-06,  avg # of iterations =  2.0

     =================== HUBBARD OCCUPATIONS ===================
     ------------------------ ATOM    1 ------------------------
     Tr[ns(  1)] =   6.27754
     eigenvalues:
       0.382  0.416  0.610  0.768  0.964
     eigenvectors (columns):
       0.000 -0.585  0.000  0.000  0.811
      -0.707 -0.000 -0.000 -0.707  0.000
       0.707  0.000 -0.000 -0.707  0.000
      -0.000  0.000  1.000 -0.000 -0.000
      -0.000  0.811 -0.000 -0.000  0.585
     occupation matrix ns (before diag.):
       0.776 -0.000 -0.000 -0.000  0.260
      -0.000  0.575  0.193  0.000  0.000
      -0.000  0.193  0.575  0.000  0.000
      -0.000  0.000  0.000  0.610 -0.000
       0.260  0.000  0.000 -0.000  0.603
     ------------------------ ATOM    2 ------------------------
     Tr[ns(  2)] =   6.27754
     eigenvalues:
       0.382  0.416  0.610  0.768  0.964
     eigenvectors (columns):
       0.000  0.585 -0.000  0.000 -0.811
      -0.707  0.000  0.000 -0.707  0.000
      -0.707  0.000  0.000  0.707  0.000
       0.000  0.000  1.000  0.000 -0.000
       0.000  0.811 -0.000  0.000  0.585
     occupation matrix ns (before diag.):
       0.776 -0.000 -0.000  0.000 -0.260
      -0.000  0.575 -0.193  0.000  0.000
      -0.000 -0.193  0.575  0.000  0.000
       0.000  0.000  0.000  0.610 -0.000
      -0.260  0.000  0.000 -0.000  0.603

     Number of occupied Hubbard levels =   12.5551

     Threshold (ethr) on eigenvalues was too large:
     Diagonalizing with lowered threshold

     Davidson diagonalization with overlap
     ethr =  5.32E-10,  avg # of iterations =  3.6

     negative rho (up, down):  1.510E-01 0.000E+00

     total cpu time spent up to now is        6.1 secs

     total energy              =    -516.99121421 Ry
     estimated scf accuracy    <       0.00000033 Ry

     iteration #  2     ecut=    40.00 Ry     beta= 0.70
     Davidson diagonalization with overlap
     ethr =  5.91E-10,  avg # of iterations =  2.0

     negative rho (up, down):  1.510E-01 0.000E+00

     total cpu time spent up to now is        6.3 secs

     total energy              =    -516.99121425 Ry
     estimated scf accuracy    <       0.00000003 Ry

     iteration #  3     ecut=    40.00 Ry     beta= 0.70
     Davidson diagonalization with overlap
     ethr =  4.50E-11,  avg # of iterations =  2.1

     negative rho (up, down):  1.510E-01 0.000E+00

     total cpu time spent up to now is        6.4 secs

     total energy              =    -516.99121424 Ry
     estimated scf accuracy    <       0.00000006 Ry

     iteration #  4     ecut=    40.00 Ry     beta= 0.70
     Davidson diagonalization with overlap
     ethr =  4.50E-11,  avg # of iterations =  2.1

     negative rho (up, down):  1.510E-01 0.000E+00

     total cpu time spent up to now is        6.6 secs

     total energy              =    -516.99121426 Ry
     estimated scf accuracy    <          2.8E-09 Ry

     iteration #  5     ecut=    40.00 Ry     beta= 0.70
     Davidson diagonalization with overlap
     ethr =  5.09E-12,  avg # of iterations =  1.0

     negative rho (up, down):  1.510E-01 0.000E+00

     total cpu time spent up to now is        6.7 secs

     total energy              =    -516.99121426 Ry
     estimated scf accuracy    <          2.7E-10 Ry

     iteration #  6     ecut=    40.00 Ry     beta= 0.70
     Davidson diagonalization with overlap
     ethr =  4.76E-13,  avg # of iterations =  2.0

     negative rho (up, down):  1.510E-01 0.000E+00

     total cpu time spent up to now is        6.8 secs

     End of self-consistent calculation

     =================== HUBBARD OCCUPATIONS ===================
     ------------------------ ATOM    1 ------------------------
     Tr[ns(  1)] =   6.27756
     eigenvalues:
       0.382  0.416  0.610  0.768  0.964
     eigenvectors (columns):
       0.000 -0.585  0.000  0.000  0.811
      -0.707 -0.000 -0.000 -0.707  0.000
       0.707  0.000 -0.000 -0.707  0.000
      -0.000  0.000  1.000 -0.000 -0.000
      -0.000  0.811 -0.000 -0.000  0.585
     occupation matrix ns (before diag.):
       0.776 -0.000 -0.000 -0.000  0.260
      -0.000  0.575  0.193  0.000  0.000
      -0.000  0.193  0.575  0.000  0.000
      -0.000  0.000  0.000  0.610 -0.000
       0.260  0.000  0.000 -0.000  0.603
     ------------------------ ATOM    2 ------------------------
     Tr[ns(  2)] =   6.27756
     eigenvalues:
       0.382  0.416  0.610  0.768  0.964
     eigenvectors (columns):
       0.000  0.585 -0.000  0.000 -0.811
      -0.707  0.000  0.000 -0.707  0.000
      -0.707  0.000  0.000  0.707  0.000
       0.000  0.000  1.000 -0.000 -0.000
       0.000  0.811 -0.000  0.000  0.585
     occupation matrix ns (before diag.):
       0.776 -0.000 -0.000  0.000 -0.260
      -0.000  0.575 -0.193  0.000  0.000
      -0.000 -0.193  0.575  0.000  0.000
       0.000  0.000  0.000  0.610 -0.000
      -0.260  0.000  0.000 -0.000  0.603

     Number of occupied Hubbard levels =   12.5551

          k = 0.0000 0.0000 0.0000 (  1803 PWs)   bands (ev):

   -60.0876 -60.0801 -30.4479 -30.4479 -29.9767 -29.9767 -29.8892 -29.8605
    -7.0171  -5.8870  -4.9079  -4.9079   4.5061   4.6106   5.6791   6.4192
     6.4192   8.9079   8.9234   8.9234  10.4291  10.8412  10.8412  10.8487
    11.3539  11.4324  11.4324  11.5587  11.6249  14.9150  15.0369  17.9831
    17.9831  19.1518

          k = 0.0000 0.0000 0.3627 (  1800 PWs)   bands (ev):

   -60.0808 -60.0755 -30.4397 -30.4397 -29.9825 -29.9624 -29.9619 -29.9619
    -6.5056  -5.6570  -5.1687  -5.1687   5.2178   5.3409   6.3334   6.5206
     6.5206   7.5453   8.4323   9.1597   9.1597   9.5956   9.5956  10.2928
    11.7429  11.9714  11.9766  12.9988  12.9988  14.3631  15.9451  17.0752
    17.0752  18.3431

          k = 0.0000 0.0000-0.7255 (  1804 PWs)   bands (ev):

   -60.0726 -60.0726 -30.4315 -30.4315 -30.0681 -30.0681 -29.9470 -29.9470
    -5.6968  -5.6968  -5.4162  -5.4162   5.8542   5.8542   6.7623   6.7623
     7.3186   7.3186   8.1115   8.1115   8.3716   8.3716   9.9113   9.9113
    11.7800  11.7800  13.1137  13.1137  13.8398  13.8398  16.5980  16.5980
    16.8001  16.8001

          k = 0.0000 0.2515 0.0000 (  1823 PWs)   bands (ev):

   -60.0865 -60.0812 -30.4466 -30.4465 -29.9790 -29.9789 -29.8849 -29.8647
    -6.7778  -5.8436  -5.1944  -5.0480   5.0025   5.0305   6.1392   6.4866
     6.5197   8.1141   8.3552   8.6654   9.4663   9.5425  10.3645  11.1144
    11.5102  11.9625  12.0680  12.2384  12.3413  14.4611  15.8971  17.6893
    17.7483  18.9673

          k = 0.0000 0.2515 0.3627 (  1815 PWs)   bands (ev):

   -60.0800 -60.0763 -30.4398 -30.4397 -29.9817 -29.9729 -29.9602 -29.9550
    -6.3261  -5.5983  -5.3824  -5.2532   5.6012   5.6597   6.1899   6.4309
     7.1713   7.3538   7.6456   8.8540   8.9792   9.3315   9.6473  10.6566
    11.5118  12.2267  12.3322  12.6526  13.3070  14.1025  16.3046  16.4447
    17.1083  18.5826

          k = 0.0000 0.2515-0.7255 (  1812 PWs)   bands (ev):

   -60.0726 -60.0726 -30.4333 -30.4333 -30.0675 -30.0675 -29.9461 -29.9461
    -5.8098  -5.8098  -5.2892  -5.2892   5.6833   5.6833   6.3629   6.3629
     7.7347   7.7347   8.3829   8.3829   8.9690   8.9690   9.5544   9.5544
    11.7958  11.7958  12.3366  12.3366  14.0661  14.0661  15.8019  15.8019
    17.9189  17.9189

          k = 0.0000-0.5030 0.0000 (  1790 PWs)   bands (ev):

   -60.0838 -60.0838 -30.4451 -30.4451 -29.9812 -29.9812 -29.8747 -29.8747
    -6.1826  -6.1826  -5.3179  -5.3179   5.6631   5.6631   6.5975   6.5975
     7.3694   7.3694   7.5809   7.5809   8.7183   8.7183  10.5677  10.5677
    12.0539  12.0539  12.6033  12.6033  13.4574  13.4574  17.4335  17.4335
    17.5905  17.5905

          k = 0.0000-0.5030 0.3627 (  1812 PWs)   bands (ev):

   -60.0782 -60.0782 -30.4398 -30.4398 -29.9797 -29.9797 -29.9558 -29.9558
    -5.8733  -5.8733  -5.4361  -5.4361   6.1722   6.1722   6.3771   6.3771
     6.8856   6.8856   8.1291   8.1291   8.6717   8.6717  10.3083  10.3083
    11.9650  11.9650  12.6499  12.6499  13.6760  13.6760  16.0869  16.0869
    18.0495  18.0495

          k = 0.0000-0.5030-0.7255 (  1820 PWs)   bands (ev):

   -60.0726 -60.0726 -30.4351 -30.4351 -30.0670 -30.0670 -29.9453 -29.9453
    -5.8834  -5.8834  -5.2013  -5.2013   5.4059   5.4059   6.4146   6.4146
     7.9289   7.9289   8.6446   8.6446   8.8526   8.8526  10.2911  10.2911
    11.1948  11.1948  11.8049  11.8049  14.1885  14.1885  15.4944  15.4944
    18.5532  18.5532

          k = 0.2515 0.2515 0.0000 (  1804 PWs)   bands (ev):

   -60.0857 -60.0819 -30.4492 -30.4451 -29.9812 -29.9767 -29.8819 -29.8676
    -6.6358  -5.8965  -5.3635  -4.9911   4.5764   5.7118   6.3670   6.5230
     6.5993   7.4680   8.6171   8.6748   9.4793   9.7748  10.0192  10.8262
    11.0965  11.4555  12.1312  12.6251  12.9558  14.3016  16.1637  17.4301
    17.9757  18.4727

          k = 0.2515 0.2515 0.3627 (  1815 PWs)   bands (ev):

   -60.0795 -60.0768 -30.4407 -30.4398 -29.9821 -29.9701 -29.9622 -29.9556
    -6.2080  -5.5938  -5.5249  -5.2402   5.3038   6.0429   6.1991   6.4500
     6.9072   7.4774   8.0497   8.4323   8.9525   9.4543   9.8200  10.6157
    11.5755  11.7879  12.3180  12.9118  13.3627  13.9145  16.0386  16.9136
    17.0765  18.3837

          k = 0.2515 0.2515-0.7255 (  1818 PWs)   bands (ev):

   -60.0726 -60.0726 -30.4351 -30.4322 -30.0700 -30.0649 -29.9475 -29.9453
    -5.8889  -5.6245  -5.4777  -5.1954   5.4415   6.1034   6.2779   6.2816
     6.7730   8.3757   8.4733   8.5621   8.7085   9.4725   9.5287   9.9176
    11.8014  11.8082  11.8353  12.8553  13.2101  14.2957  15.4121  16.5846
    17.2539  18.3988

          k = 0.2515-0.5030 0.0000 (  1798 PWs)   bands (ev):

   -60.0838 -60.0838 -30.4478 -30.4478 -29.9789 -29.9789 -29.8747 -29.8747
    -6.2700  -6.2700  -5.1864  -5.1864   5.0215   5.0215   6.4421   6.4421
     7.5780   7.5780   8.6600   8.6600   9.1600   9.1600  10.0003  10.0003
    11.7452  11.7452  12.1012  12.1012  13.7431  13.7431  17.2635  17.2635
    17.7134  17.7134

          k = 0.2515-0.5030 0.3627 (  1808 PWs)   bands (ev):

   -60.0781 -60.0781 -30.4407 -30.4407 -29.9767 -29.9767 -29.9584 -29.9584
    -5.9187  -5.9187  -5.3683  -5.3683   5.6665   5.6665   6.0954   6.0954
     7.5154   7.5154   8.4875   8.4875   8.9493   8.9493   9.9989   9.9989
    12.0731  12.0731  12.3724  12.3724  13.5288  13.5288  16.5016  16.5016
    17.7557  17.7557

          k = 0.2515-0.5030-0.7255 (  1812 PWs)   bands (ev):

   -60.0726 -60.0726 -30.4339 -30.4339 -30.0674 -30.0674 -29.9467 -29.9467
    -5.7846  -5.7846  -5.3027  -5.3027   5.5746   5.5746   6.3385   6.3385
     7.3873   7.3873   8.4546   8.4546   9.2324   9.2324  10.4575  10.4575
    11.7533  11.7533  11.8201  11.8201  13.8077  13.8077  15.8659  15.8659
    18.0816  18.0816

          k =-0.5030-0.5030 0.0000 (  1784 PWs)   bands (ev):

   -60.0838 -60.0838 -30.4505 -30.4505 -29.9767 -29.9767 -29.8747 -29.8747
    -6.3407  -6.3407  -5.0703  -5.0703   4.5844   4.5844   6.3154   6.3154
     8.4572   8.4572   8.4920   8.4920   9.7183   9.7183  10.2435  10.2435
    11.0624  11.0624  11.4802  11.4802  13.9565  13.9565  16.9799  16.9799
    17.9683  17.9683

          k =-0.5030-0.5030 0.3627 (  1820 PWs)   bands (ev):

   -60.0781 -60.0781 -30.4416 -30.4416 -29.9723 -29.9723 -29.9624 -29.9624
    -5.9554  -5.9554  -5.3089  -5.3089   5.3105   5.3105   5.9753   5.9753
     8.0161   8.0161   8.8410   8.8410   8.9351   8.9351   9.9064   9.9064
    11.7859  11.7859  12.4708  12.4708  13.3427  13.3427  17.0696  17.0696
    17.2748  17.2748

          k =-0.5030-0.5030-0.7255 (  1808 PWs)   bands (ev):

   -60.0726 -60.0726 -30.4327 -30.4327 -30.0678 -30.0678 -29.9480 -29.9480
    -5.5526  -5.5526  -5.5373  -5.5373   5.8569   5.8569   6.2086   6.2086
     6.9039   6.9039   8.4099   8.4099   9.3520   9.3520  10.6899  10.6899
    11.8293  11.8293  12.6074  12.6074  13.0701  13.0701  16.5636  16.5636
    17.2904  17.2904

     the Fermi energy is    12.9373 ev

!    total energy              =    -516.99121426 Ry
     estimated scf accuracy    <          1.3E-11 Ry
     smearing contrib. (-TS)   =      -0.00168755 Ry
     internal energy E=F+TS    =    -516.98952671 Ry

     The total energy is F=E-TS. E is the sum of the following terms:
     one-electron contribution =    -162.49964263 Ry
     hartree contribution      =     113.59951473 Ry
     xc contribution           =     -80.03660927 Ry
     ewald contribution        =    -388.35773340 Ry
     Hubbard energy            =       0.30494387 Ry

     convergence has been achieved in   6 iterations

     negative rho (up, down):  1.510E-01 0.000E+00

     Forces acting on atoms (cartesian axes, Ry/au):

     atom    1 type  1   force =     0.00000000    0.00000000   -0.00000000
     atom    2 type  1   force =     0.00000000    0.00000000    0.00000000
     atom    3 type  2   force =    -0.00015491   -0.00015491   -0.00000000
     atom    4 type  2   force =     0.00015491    0.00015491   -0.00000000
     atom    5 type  2   force =    -0.00015491    0.00015491    0.00000000
     atom    6 type  2   force =     0.00015491   -0.00015491    0.00000000

     Total force =     0.000438     Total SCF correction =     0.000002


     Computing stress (Cartesian axis) and pressure


     negative rho (up, down):  1.510E-01 0.000E+00
          total   stress  (Ry/bohr**3)                   (kbar)     P=       -0.00
   0.00000129   0.00000000   0.00000000            0.19        0.00        0.00
   0.00000000   0.00000129   0.00000000            0.00        0.19        0.00
   0.00000000   0.00000000  -0.00000262            0.00        0.00       -0.38

     Energy error            =      1.8E-06 Ry
     Gradient error          =      1.5E-04 Ry/Bohr
     Cell gradient error     =      3.8E-01 kbar

     bfgs converged in   4 scf cycles and   3 bfgs steps
     (criteria: energy <  1.0E-04 Ry, force <  1.0E-03 Ry/Bohr, cell <  5.0E-01 kbar)

     End of BFGS Geometry Optimization

     Final enthalpy           =    -516.9912142562 Ry

     File RuO2_out/RuO2_o.bfgs deleted, as requested
Begin final coordinates
     new unit-cell volume =    417.88608 a.u.^3 (    61.92433 Ang^3 )
     density =      7.13660 g/cm^3

CELL_PARAMETERS (angstrom)
   4.469994353   0.000000000   0.000000000
   0.000000000   4.469994353   0.000000000
   0.000000000   0.000000000   3.099183972

ATOMIC_POSITIONS (angstrom)
Ru               0.0000000000        0.0000000000        0.0000000000
Ru               2.2349971763        2.2349971763        1.5495919858
O                1.3610502230        1.3610502230       -0.0000000000
O                3.1089441295        3.1089441295       -0.0000000000
O                3.5960473993        0.8739469533        1.5495919858
O                0.8739469533        3.5960473993        1.5495919858
End final coordinates



     Writing config-only to output data dir RuO2_out/RuO2_o.save/ :
     XML data file

     Final scf calculation at the relaxed structure.
     The G-vectors are recalculated for the final unit cell
     Results may differ from those at the preceding step.
 
     Parallelization info
     --------------------
     sticks:   dense  smooth     PW     G-vecs:    dense   smooth      PW
     Min         226     112     36                 5054     1777     312
     Max         227     113     38                 5055     1778     313
     Sum        1813     901    293                40437    14219    2497
 
     Using Slab Decomposition
 


     bravais-lattice index     =            0
     lattice parameter (alat)  =       8.4977  a.u.
     unit-cell volume          =     417.8861 (a.u.)^3
     number of atoms/cell      =            6
     number of atomic types    =            2
     number of electrons       =        56.00
     number of Kohn-Sham states=           34
     kinetic-energy cutoff     =      40.0000  Ry
     charge density cutoff     =     320.0000  Ry
     scf convergence threshold =      1.0E-10
     mixing beta               =       0.7000
     number of iterations used =            8  plain     mixing
     press convergence thresh. =      5.0E-01
     Exchange-correlation= SLA  PW   PSX  PSC
                           (   1   4  10   8   0   0   0)
     Hubbard projectors: ortho-atomic
     Hubbard parameters of DFT+U (Dudarev formulation) in eV:
     U(Ru-4d) =  2.3650
     alpha(Ru-4d) = -0.0200

     Internal variables: lda_plus_u = T, lda_plus_u_kind = 0

     celldm(1)=   8.497720  celldm(2)=   0.000000  celldm(3)=   0.000000
     celldm(4)=   0.000000  celldm(5)=   0.000000  celldm(6)=   0.000000

     crystal axes: (cart. coord. in units of alat)
               a(1) = (   0.994039   0.000000   0.000000 )  
               a(2) = (   0.000000   0.994039   0.000000 )  
               a(3) = (   0.000000   0.000000   0.689198 )  

     reciprocal axes: (cart. coord. in units 2 pi/alat)
               b(1) = (  1.005997  0.000000  0.000000 )  
               b(2) = (  0.000000  1.005997  0.000000 )  
               b(3) = (  0.000000  0.000000  1.450963 )  


     PseudoPot. # 1 for Ru read from file:
     ./pseudos/ru_pbesol_v1.2.uspp.F.UPF
     MD5 check sum: f86cd6c1aa6b621eb21bb2137df4e461
     Pseudo is Ultrasoft + core correction, Zval = 16.0
     Generated by new atomic code, or converted to UPF format
     Using radial grid of  967 points,  6 beta functions with: 
                l(1) =   0
                l(2) =   0
                l(3) =   1
                l(4) =   1
                l(5) =   2
                l(6) =   2
     Q(r) pseudized with  8 coefficients,  rinner =    1.300   1.300   1.300
                                                       1.300   1.300

     PseudoPot. # 2 for O  read from file:
     ./pseudos/o_pbesol_v1.2.uspp.F.UPF
     MD5 check sum: 501638753501ef6325af9037351f7734
     Pseudo is Ultrasoft + core correction, Zval =  6.0
     Generated by new atomic code, or converted to UPF format
     Using radial grid of  737 points,  5 beta functions with: 
                l(1) =   0
                l(2) =   0
                l(3) =   1
                l(4) =   1
                l(5) =   2
     Q(r) pseudized with  8 coefficients,  rinner =    0.900   0.900   0.900
                                                       0.900   0.900

     atomic species   valence    mass     pseudopotential
     Ru               16.00   101.07000     Ru( 1.00)
     O                 6.00    15.99900     O ( 1.00)

     16 Sym. Ops., with inversion, found ( 8 have fractional translation)



   Cartesian axes

     site n.     atom                  positions (alat units)
         1        Ru     tau(   1) = (   0.0000000   0.0000000   0.0000000  )
         2        Ru     tau(   2) = (   0.4970195   0.4970195   0.3445988  )
         3        O      tau(   3) = (   0.3026708   0.3026708  -0.0000000  )
         4        O      tau(   4) = (   0.6913681   0.6913681  -0.0000000  )
         5        O      tau(   5) = (   0.7996903   0.1943486   0.3445988  )
         6        O      tau(   6) = (   0.1943486   0.7996903   0.3445988  )

     number of k points=    18  Gaussian smearing, width (Ry)=  0.0100
                       cart. coord. in units 2pi/alat
        k(    1) = (   0.0000000   0.0000000   0.0000000), wk =   0.0312500
        k(    2) = (   0.0000000   0.0000000   0.3627406), wk =   0.0625000
        k(    3) = (   0.0000000   0.0000000  -0.7254813), wk =   0.0312500
        k(    4) = (   0.0000000   0.2514992   0.0000000), wk =   0.1250000
        k(    5) = (   0.0000000   0.2514992   0.3627406), wk =   0.2500000
        k(    6) = (   0.0000000   0.2514992  -0.7254813), wk =   0.1250000
        k(    7) = (   0.0000000  -0.5029984   0.0000000), wk =   0.0625000
        k(    8) = (   0.0000000  -0.5029984   0.3627406), wk =   0.1250000
        k(    9) = (   0.0000000  -0.5029984  -0.7254813), wk =   0.0625000
        k(   10) = (   0.2514992   0.2514992   0.0000000), wk =   0.1250000
        k(   11) = (   0.2514992   0.2514992   0.3627406), wk =   0.2500000
        k(   12) = (   0.2514992   0.2514992  -0.7254813), wk =   0.1250000
        k(   13) = (   0.2514992  -0.5029984   0.0000000), wk =   0.1250000
        k(   14) = (   0.2514992  -0.5029984   0.3627406), wk =   0.2500000
        k(   15) = (   0.2514992  -0.5029984  -0.7254813), wk =   0.1250000
        k(   16) = (  -0.5029984  -0.5029984   0.0000000), wk =   0.0312500
        k(   17) = (  -0.5029984  -0.5029984   0.3627406), wk =   0.0625000
        k(   18) = (  -0.5029984  -0.5029984  -0.7254813), wk =   0.0312500

     Dense  grid:    40437 G-vectors     FFT dimensions: (  50,  50,  36)

     Smooth grid:    14219 G-vectors     FFT dimensions: (  36,  36,  24)

     Estimated max dynamical RAM per process >      14.01 MB

     Estimated total dynamical RAM >     418.76 MB

     Check: negative core charge=   -0.000001

     Initial potential from superposition of free atoms

     starting charge      55.0162, renormalised to      56.0000

     negative rho (up, down):  1.469E-01 0.000E+00

     STARTING HUBBARD OCCUPATIONS:

     =================== HUBBARD OCCUPATIONS ===================
     ------------------------ ATOM    1 ------------------------
     Tr[ns(  1)] =   6.00000
     eigenvalues:
       0.600  0.600  0.600  0.600  0.600
     eigenvectors (columns):
       1.000  0.000  0.000  0.000  0.000
       0.000  1.000  0.000  0.000  0.000
       0.000  0.000  1.000  0.000  0.000
       0.000  0.000  0.000  1.000  0.000
       0.000  0.000  0.000  0.000  1.000
     occupation matrix ns (before diag.):
       0.600  0.000  0.000  0.000  0.000
       0.000  0.600  0.000  0.000  0.000
       0.000  0.000  0.600  0.000  0.000
       0.000  0.000  0.000  0.600  0.000
       0.000  0.000  0.000  0.000  0.600
     ------------------------ ATOM    2 ------------------------
     Tr[ns(  2)] =   6.00000
     eigenvalues:
       0.600  0.600  0.600  0.600  0.600
     eigenvectors (columns):
       1.000  0.000  0.000  0.000  0.000
       0.000  1.000  0.000  0.000  0.000
       0.000  0.000  1.000  0.000  0.000
       0.000  0.000  0.000  1.000  0.000
       0.000  0.000  0.000  0.000  1.000
     occupation matrix ns (before diag.):
       0.600  0.000  0.000  0.000  0.000
       0.000  0.600  0.000  0.000  0.000
       0.000  0.000  0.600  0.000  0.000
       0.000  0.000  0.000  0.600  0.000
       0.000  0.000  0.000  0.000  0.600

     Number of occupied Hubbard levels =   12.0000

     Atomic wfc used for Hubbard projectors are orthogonalized

     Starting wfcs are   42 randomized atomic wfcs

     total cpu time spent up to now is        7.6 secs

     Self-consistent Calculation

     iteration #  1     ecut=    40.00 Ry     beta= 0.70
     Davidson diagonalization with overlap
     c_bands:  1 eigenvalues not converged
     ethr =  1.00E-06,  avg # of iterations = 11.1

     =================== HUBBARD OCCUPATIONS ===================
     ------------------------ ATOM    1 ------------------------
     Tr[ns(  1)] =   5.16283
     eigenvalues:
       0.245  0.266  0.430  0.697  0.943
     eigenvectors (columns):
       0.000 -0.584 -0.000  0.000  0.812
      -0.707 -0.000  0.000 -0.707  0.000
       0.707  0.000  0.000 -0.707  0.000
      -0.000  0.000 -1.000 -0.000 -0.000
      -0.000  0.812  0.000 -0.000  0.584
     occupation matrix ns (before diag.):
       0.712 -0.000  0.000 -0.000  0.321
      -0.000  0.471  0.226  0.000  0.000
       0.000  0.226  0.471  0.000  0.000
      -0.000  0.000  0.000  0.430 -0.000
       0.321  0.000  0.000 -0.000  0.497
     ------------------------ ATOM    2 ------------------------
     Tr[ns(  2)] =   5.16283
     eigenvalues:
       0.245  0.266  0.430  0.697  0.943
     eigenvectors (columns):
       0.000  0.584 -0.000  0.000 -0.812
      -0.707  0.000  0.000 -0.707  0.000
      -0.707  0.000  0.000  0.707  0.000
       0.000  0.000  1.000 -0.000 -0.000
       0.000  0.812 -0.000  0.000  0.584
     occupation matrix ns (before diag.):
       0.712 -0.000 -0.000  0.000 -0.321
      -0.000  0.471 -0.226  0.000  0.000
      -0.000 -0.226  0.471  0.000  0.000
       0.000  0.000  0.000  0.430 -0.000
      -0.321  0.000  0.000 -0.000  0.497

     Number of occupied Hubbard levels =   10.3257

     negative rho (up, down):  1.504E-01 0.000E+00

     total cpu time spent up to now is        8.0 secs

     total energy              =    -515.27089452 Ry
     estimated scf accuracy    <       3.10850772 Ry

     iteration #  2     ecut=    40.00 Ry     beta= 0.70
     Davidson diagonalization with overlap
     ethr =  5.55E-03,  avg # of iterations =  2.3

     negative rho (up, down):  1.492E-01 0.000E+00

     total cpu time spent up to now is        8.2 secs

     total energy              =    -514.29489545 Ry
     estimated scf accuracy    <      16.45685492 Ry

     iteration #  3     ecut=    40.00 Ry     beta= 0.70
     Davidson diagonalization with overlap
     ethr =  5.55E-03,  avg # of iterations =  2.1

     negative rho (up, down):  1.495E-01 0.000E+00

     total cpu time spent up to now is        8.3 secs

     total energy              =    -516.96737502 Ry
     estimated scf accuracy    <       0.14794888 Ry

     iteration #  4     ecut=    40.00 Ry     beta= 0.70
     Davidson diagonalization with overlap
     ethr =  2.64E-04,  avg # of iterations =  1.5

     negative rho (up, down):  1.499E-01 0.000E+00

     total cpu time spent up to now is        8.5 secs

     total energy              =    -516.99063936 Ry
     estimated scf accuracy    <       0.00123978 Ry

     iteration #  5     ecut=    40.00 Ry     beta= 0.70
     Davidson diagonalization with overlap
     ethr =  2.21E-06,  avg # of iterations =  3.7

     negative rho (up, down):  1.507E-01 0.000E+00

     total cpu time spent up to now is        8.7 secs

     total energy              =    -516.99088251 Ry
     estimated scf accuracy    <       0.00125949 Ry

     iteration #  6     ecut=    40.00 Ry     beta= 0.70
     Davidson diagonalization with overlap
     ethr =  2.21E-06,  avg # of iterations =  2.0

     negative rho (up, down):  1.509E-01 0.000E+00

     total cpu time spent up to now is        8.8 secs

     total energy              =    -516.99110916 Ry
     estimated scf accuracy    <       0.00003922 Ry

     iteration #  7     ecut=    40.00 Ry     beta= 0.70
     Davidson diagonalization with overlap
     ethr =  7.00E-08,  avg # of iterations =  2.7

     negative rho (up, down):  1.510E-01 0.000E+00

     total cpu time spent up to now is        9.0 secs

     total energy              =    -516.99111768 Ry
     estimated scf accuracy    <       0.00000381 Ry

     iteration #  8     ecut=    40.00 Ry     beta= 0.70
     Davidson diagonalization with overlap
     ethr =  6.80E-09,  avg # of iterations =  2.1

     negative rho (up, down):  1.510E-01 0.000E+00

     total cpu time spent up to now is        9.1 secs

     total energy              =    -516.99111896 Ry
     estimated scf accuracy    <       0.00000142 Ry

     iteration #  9     ecut=    40.00 Ry     beta= 0.70
     Davidson diagonalization with overlap
     ethr =  2.54E-09,  avg # of iterations =  2.0

     negative rho (up, down):  1.510E-01 0.000E+00

     total cpu time spent up to now is        9.3 secs

     total energy              =    -516.99111927 Ry
     estimated scf accuracy    <       0.00000006 Ry

     iteration # 10     ecut=    40.00 Ry     beta= 0.70
     Davidson diagonalization with overlap
     ethr =  1.00E-10,  avg # of iterations =  2.6

     negative rho (up, down):  1.510E-01 0.000E+00

     total cpu time spent up to now is        9.4 secs

     total energy              =    -516.99111928 Ry
     estimated scf accuracy    <          2.0E-10 Ry

     iteration # 11     ecut=    40.00 Ry     beta= 0.70
     Davidson diagonalization with overlap
     ethr =  3.49E-13,  avg # of iterations =  4.6

     negative rho (up, down):  1.510E-01 0.000E+00

     total cpu time spent up to now is        9.6 secs

     End of self-consistent calculation

     =================== HUBBARD OCCUPATIONS ===================
     ------------------------ ATOM    1 ------------------------
     Tr[ns(  1)] =   6.27758
     eigenvalues:
       0.382  0.416  0.610  0.768  0.964
     eigenvectors (columns):
       0.000 -0.585  0.000  0.000  0.811
      -0.707 -0.000 -0.000 -0.707  0.000
       0.707  0.000 -0.000 -0.707  0.000
      -0.000  0.000  1.000 -0.000 -0.000
      -0.000  0.811 -0.000 -0.000  0.585
     occupation matrix ns (before diag.):
       0.776 -0.000 -0.000 -0.000  0.260
      -0.000  0.575  0.193  0.000  0.000
      -0.000  0.193  0.575  0.000  0.000
      -0.000  0.000  0.000  0.610 -0.000
       0.260  0.000  0.000 -0.000  0.603
     ------------------------ ATOM    2 ------------------------
     Tr[ns(  2)] =   6.27758
     eigenvalues:
       0.382  0.416  0.610  0.768  0.964
     eigenvectors (columns):
       0.000  0.585 -0.000  0.000 -0.811
      -0.707  0.000  0.000 -0.707  0.000
      -0.707  0.000  0.000  0.707  0.000
       0.000  0.000  1.000 -0.000 -0.000
       0.000  0.811 -0.000  0.000  0.585
     occupation matrix ns (before diag.):
       0.776 -0.000 -0.000  0.000 -0.260
      -0.000  0.575 -0.193  0.000  0.000
      -0.000 -0.193  0.575  0.000  0.000
       0.000  0.000  0.000  0.610 -0.000
      -0.260  0.000  0.000 -0.000  0.603

     Number of occupied Hubbard levels =   12.5552

          k = 0.0000 0.0000 0.0000 (  1787 PWs)   bands (ev):

   -60.0876 -60.0801 -30.4480 -30.4480 -29.9767 -29.9767 -29.8891 -29.8604
    -7.0171  -5.8870  -4.9079  -4.9079   4.5061   4.6106   5.6791   6.4192
     6.4192   8.9079   8.9234   8.9234  10.4291  10.8414  10.8414  10.8487
    11.3539  11.4324  11.4324  11.5587  11.6249  14.9150  15.0368  17.9831
    17.9831  19.1517

          k = 0.0000 0.0000 0.3627 (  1792 PWs)   bands (ev):

   -60.0808 -60.0755 -30.4398 -30.4398 -29.9824 -29.9624 -29.9619 -29.9619
    -6.5056  -5.6569  -5.1687  -5.1687   5.2178   5.3409   6.3334   6.5206
     6.5206   7.5453   8.4323   9.1597   9.1597   9.5956   9.5956  10.2929
    11.7429  11.9714  11.9765  12.9989  12.9989  14.3631  15.9450  17.0753
    17.0753  18.3430

          k = 0.0000 0.0000-0.7255 (  1780 PWs)   bands (ev):

   -60.0726 -60.0726 -30.4316 -30.4316 -30.0680 -30.0680 -29.9470 -29.9470
    -5.6968  -5.6968  -5.4162  -5.4162   5.8542   5.8542   6.7623   6.7623
     7.3186   7.3186   8.1115   8.1115   8.3717   8.3717   9.9113   9.9113
    11.7801  11.7801  13.1137  13.1137  13.8398  13.8398  16.5981  16.5981
    16.8001  16.8001

          k = 0.0000 0.2515 0.0000 (  1785 PWs)   bands (ev):

   -60.0865 -60.0812 -30.4466 -30.4465 -29.9790 -29.9789 -29.8849 -29.8646
    -6.7778  -5.8436  -5.1943  -5.0480   5.0025   5.0305   6.1392   6.4866
     6.5197   8.1141   8.3552   8.6655   9.4663   9.5427  10.3647  11.1145
    11.5102  11.9625  12.0680  12.2385  12.3413  14.4611  15.8972  17.6894
    17.7484  18.9673

          k = 0.0000 0.2515 0.3627 (  1789 PWs)   bands (ev):

   -60.0800 -60.0763 -30.4399 -30.4398 -29.9817 -29.9728 -29.9601 -29.9550
    -6.3260  -5.5983  -5.3824  -5.2531   5.6012   5.6597   6.1900   6.4309
     7.1713   7.3538   7.6457   8.8540   8.9792   9.3315   9.6474  10.6566
    11.5118  12.2267  12.3322  12.6526  13.3070  14.1025  16.3046  16.4448
    17.1083  18.5827

          k = 0.0000 0.2515-0.7255 (  1798 PWs)   bands (ev):

   -60.0726 -60.0726 -30.4334 -30.4334 -30.0675 -30.0675 -29.9461 -29.9461
    -5.8098  -5.8098  -5.2891  -5.2891   5.6833   5.6833   6.3629   6.3629
     7.7348   7.7348   8.3830   8.3830   8.9691   8.9691   9.5545   9.5545
    11.7958  11.7958  12.3366  12.3366  14.0661  14.0661  15.8018  15.8018
    17.9189  17.9189

          k = 0.0000-0.5030 0.0000 (  1766 PWs)   bands (ev):

   -60.0838 -60.0838 -30.4452 -30.4452 -29.9811 -29.9811 -29.8747 -29.8747
    -6.1826  -6.1826  -5.3179  -5.3179   5.6631   5.6631   6.5975   6.5975
     7.3694   7.3694   7.5810   7.5810   8.7184   8.7184  10.5678  10.5678
    12.0540  12.0540  12.6033  12.6033  13.4574  13.4574  17.4336  17.4336
    17.5905  17.5905

          k = 0.0000-0.5030 0.3627 (  1782 PWs)   bands (ev):

   -60.0781 -60.0781 -30.4399 -30.4399 -29.9796 -29.9796 -29.9557 -29.9557
    -5.8733  -5.8733  -5.4361  -5.4361   6.1722   6.1722   6.3771   6.3771
     6.8857   6.8857   8.1291   8.1291   8.6718   8.6718  10.3083  10.3083
    11.9650  11.9650  12.6500  12.6500  13.6760  13.6760  16.0869  16.0869
    18.0496  18.0496

          k = 0.0000-0.5030-0.7255 (  1804 PWs)   bands (ev):

   -60.0726 -60.0726 -30.4352 -30.4352 -30.0669 -30.0669 -29.9453 -29.9453
    -5.8834  -5.8834  -5.2012  -5.2012   5.4059   5.4059   6.4146   6.4146
     7.9290   7.9290   8.6446   8.6446   8.8526   8.8526  10.2911  10.2911
    11.1948  11.1948  11.8050  11.8050  14.1885  14.1885  15.4944  15.4944
    18.5532  18.5532

          k = 0.2515 0.2515 0.0000 (  1784 PWs)   bands (ev):

   -60.0857 -60.0819 -30.4493 -30.4452 -29.9811 -29.9767 -29.8819 -29.8675
    -6.6358  -5.8965  -5.3634  -4.9911   4.5765   5.7119   6.3670   6.5230
     6.5993   7.4680   8.6171   8.6748   9.4794   9.7748  10.0193  10.8262
    11.0966  11.4555  12.1312  12.6251  12.9558  14.3016  16.1637  17.4301
    17.9757  18.4727

          k = 0.2515 0.2515 0.3627 (  1793 PWs)   bands (ev):

   -60.0795 -60.0768 -30.4407 -30.4399 -29.9821 -29.9700 -29.9621 -29.9555
    -6.2079  -5.5937  -5.5249  -5.2401   5.3038   6.0429   6.1991   6.4500
     6.9072   7.4774   8.0497   8.4323   8.9525   9.4543   9.8200  10.6157
    11.5755  11.7880  12.3180  12.9118  13.3627  13.9145  16.0386  16.9135
    17.0765  18.3837

          k = 0.2515 0.2515-0.7255 (  1786 PWs)   bands (ev):

   -60.0726 -60.0725 -30.4351 -30.4322 -30.0700 -30.0648 -29.9475 -29.9453
    -5.8889  -5.6244  -5.4777  -5.1954   5.4415   6.1034   6.2779   6.2816
     6.7731   8.3758   8.4734   8.5622   8.7086   9.4726   9.5287   9.9177
    11.8014  11.8082  11.8353  12.8554  13.2101  14.2957  15.4121  16.5846
    17.2539  18.3988

          k = 0.2515-0.5030 0.0000 (  1762 PWs)   bands (ev):

   -60.0838 -60.0838 -30.4479 -30.4479 -29.9789 -29.9789 -29.8747 -29.8747
    -6.2700  -6.2700  -5.1863  -5.1863   5.0215   5.0215   6.4421   6.4421
     7.5780   7.5780   8.6601   8.6601   9.1600   9.1600  10.0004  10.0004
    11.7453  11.7453  12.1013  12.1013  13.7431  13.7431  17.2635  17.2635
    17.7135  17.7135

          k = 0.2515-0.5030 0.3627 (  1784 PWs)   bands (ev):

   -60.0781 -60.0781 -30.4408 -30.4408 -29.9766 -29.9766 -29.9583 -29.9583
    -5.9187  -5.9187  -5.3683  -5.3683   5.6665   5.6665   6.0954   6.0954
     7.5155   7.5155   8.4875   8.4875   8.9493   8.9493   9.9989   9.9989
    12.0731  12.0731  12.3725  12.3725  13.5288  13.5288  16.5016  16.5016
    17.7557  17.7557

          k = 0.2515-0.5030-0.7255 (  1780 PWs)   bands (ev):

   -60.0726 -60.0726 -30.4340 -30.4340 -30.0673 -30.0673 -29.9466 -29.9466
    -5.7846  -5.7846  -5.3027  -5.3027   5.5746   5.5746   6.3385   6.3385
     7.3874   7.3874   8.4546   8.4546   9.2325   9.2325  10.4576  10.4576
    11.7534  11.7534  11.8201  11.8201  13.8077  13.8077  15.8659  15.8659
    18.0816  18.0816

          k =-0.5030-0.5030 0.0000 (  1752 PWs)   bands (ev):

   -60.0837 -60.0837 -30.4505 -30.4505 -29.9766 -29.9766 -29.8746 -29.8746
    -6.3407  -6.3407  -5.0703  -5.0703   4.5844   4.5844   6.3154   6.3154
     8.4572   8.4572   8.4921   8.4921   9.7184   9.7184  10.2436  10.2436
    11.0625  11.0625  11.4802  11.4802  13.9565  13.9565  16.9799  16.9799
    17.9683  17.9683

          k =-0.5030-0.5030 0.3627 (  1780 PWs)   bands (ev):

   -60.0781 -60.0781 -30.4417 -30.4417 -29.9722 -29.9722 -29.9624 -29.9624
    -5.9554  -5.9554  -5.3088  -5.3088   5.3105   5.3105   5.9753   5.9753
     8.0162   8.0162   8.8410   8.8410   8.9352   8.9352   9.9065   9.9065
    11.7860  11.7860  12.4709  12.4709  13.3427  13.3427  17.0697  17.0697
    17.2748  17.2748

          k =-0.5030-0.5030-0.7255 (  1760 PWs)   bands (ev):

   -60.0725 -60.0725 -30.4328 -30.4328 -30.0677 -30.0677 -29.9480 -29.9480
    -5.5525  -5.5525  -5.5373  -5.5373   5.8569   5.8569   6.2086   6.2086
     6.9039   6.9039   8.4100   8.4100   9.3521   9.3521  10.6901  10.6901
    11.8293  11.8293  12.6074  12.6074  13.0702  13.0702  16.5637  16.5637
    17.2905  17.2905

     the Fermi energy is    12.9373 ev

!    total energy              =    -516.99111928 Ry
     estimated scf accuracy    <          5.1E-11 Ry
     smearing contrib. (-TS)   =      -0.00168760 Ry
     internal energy E=F+TS    =    -516.98943169 Ry

     The total energy is F=E-TS. E is the sum of the following terms:
     one-electron contribution =    -162.49960690 Ry
     hartree contribution      =     113.59958447 Ry
     xc contribution           =     -80.03661916 Ry
     ewald contribution        =    -388.35773340 Ry
     Hubbard energy            =       0.30494331 Ry

     convergence has been achieved in  11 iterations

     negative rho (up, down):  1.510E-01 0.000E+00

     Forces acting on atoms (cartesian axes, Ry/au):

     atom    1 type  1   force =     0.00000000    0.00000000    0.00000000
     atom    2 type  1   force =     0.00000000    0.00000000   -0.00000000
     atom    3 type  2   force =    -0.00014681   -0.00014681   -0.00000000
     atom    4 type  2   force =     0.00014681    0.00014681   -0.00000000
     atom    5 type  2   force =    -0.00014681    0.00014681    0.00000000
     atom    6 type  2   force =     0.00014681   -0.00014681    0.00000000

     Total force =     0.000415     Total SCF correction =     0.000007


     Computing stress (Cartesian axis) and pressure


     negative rho (up, down):  1.510E-01 0.000E+00
          total   stress  (Ry/bohr**3)                   (kbar)     P=       -0.11
   0.00000034   0.00000000   0.00000000            0.05        0.00        0.00
   0.00000000   0.00000034   0.00000000            0.00        0.05        0.00
   0.00000000   0.00000000  -0.00000301            0.00        0.00       -0.44


     Writing all to output data dir RuO2_out/RuO2_o.save/ :
     XML data file, charge density, pseudopotentials, collected wavefunctions
 
     init_run     :      0.31s CPU      0.36s WALL (       2 calls)
     electrons    :      5.86s CPU      6.20s WALL (       5 calls)
     update_pot   :      0.05s CPU      0.07s WALL (       3 calls)
     forces       :      0.86s CPU      0.88s WALL (       5 calls)
     stress       :      2.12s CPU      2.15s WALL (       5 calls)

     Called by init_run:
     wfcinit      :      0.10s CPU      0.11s WALL (       2 calls)
     potinit      :      0.02s CPU      0.03s WALL (       2 calls)
     hinit0       :      0.12s CPU      0.14s WALL (       2 calls)

     Called by electrons:
     c_bands      :      4.54s CPU      4.69s WALL (      36 calls)
     sum_band     :      0.86s CPU      0.92s WALL (      36 calls)
     v_of_rho     :      0.20s CPU      0.24s WALL (      38 calls)
     newd         :      0.23s CPU      0.24s WALL (      38 calls)
     mix_rho      :      0.03s CPU      0.03s WALL (      36 calls)

     Called by c_bands:
     init_us_2    :      0.07s CPU      0.08s WALL (     495 calls)
     cegterg      :      4.13s CPU      4.23s WALL (     180 calls)

     Called by *egterg:
     cdiaghg      :      0.93s CPU      0.95s WALL (     731 calls)
     h_psi        :      2.43s CPU      2.51s WALL (     771 calls)
     s_psi        :      0.21s CPU      0.22s WALL (     896 calls)
     g_psi        :      0.01s CPU      0.01s WALL (     581 calls)

     Called by h_psi:
     h_psi:calbec :      0.23s CPU      0.23s WALL (     771 calls)
     vloc_psi     :      1.93s CPU      2.00s WALL (     771 calls)
     add_vuspsi   :      0.17s CPU      0.18s WALL (     771 calls)
     vhpsi        :      0.09s CPU      0.09s WALL (     771 calls)

     General routines
     calbec       :      1.55s CPU      1.58s WALL (   16827 calls)
     fft          :      0.16s CPU      0.18s WALL (     615 calls)
     ffts         :      0.01s CPU      0.01s WALL (      74 calls)
     fftw         :      1.96s CPU      2.05s WALL (   41984 calls)
     interpolate  :      0.01s CPU      0.01s WALL (      38 calls)
 
     Parallel routines

     Hubbard U routines
     new_ns       :      0.04s CPU      0.04s WALL (      36 calls)
     vhpsi        :      0.09s CPU      0.09s WALL (     771 calls)
     force_hub    :      0.71s CPU      0.72s WALL (       5 calls)
                                        0.00s GPU  (       5 calls)
     stres_hub    :      1.67s CPU      1.69s WALL (       5 calls)
                                        0.00s GPU  (       5 calls)
 
     PWSCF        :      9.42s CPU     10.28s WALL

 
   This run was terminated on:  17:25:20  27Jun2024            

=------------------------------------------------------------------------------=
   JOB DONE.
=------------------------------------------------------------------------------=
