
     Program PWSCF v.7.3.1 starts on 26Jun2024 at 21: 3: 4 

     This program is part of the open-source Quantum ESPRESSO suite
     for quantum simulation of materials; please cite
         "P. Giannozzi et al., J. Phys.:Condens. Matter 21 395502 (2009);
         "P. Giannozzi et al., J. Phys.:Condens. Matter 29 465901 (2017);
         "P. Giannozzi et al., J. Chem. Phys. 152 154105 (2020);
          URL http://www.quantum-espresso.org", 
     in publications or presentations arising from this work. More details at
     http://www.quantum-espresso.org/quote

     Parallel version (MPI), running on    32 processors

     MPI processes distributed on     1 nodes
     145961 MiB available memory on the printing compute node when the environment starts
 
     Reading input from espresso.pwi
Warning: card &CELL ignored
Warning: card / ignored
Warning: card &FCP ignored
Warning: card / ignored
Warning: card &RISM ignored
Warning: card / ignored

     Current dimensions of program PWSCF are:
     Max number of different atomic species (ntypx) = 10
     Max number of k-points (npk) =  40000
     Max angular momentum in pseudopotentials (lmaxx) =  4
     signal trapping enabled: kill the code with -SIGUSR1 to stop cleanly the simulation 
     Message from routine setup:
     using ibrav=0 with symmetry is DISCOURAGED, use correct ibrav instead
 
     K-points division:     npool     =       4
     R & G space division:  proc/nbgrp/npool/nimage =       8
     Subspace diagonalization in iterative solution of the eigenvalue problem:
     a serial algorithm will be used

 
     Parallelization info
     --------------------
     sticks:   dense  smooth     PW     G-vecs:    dense   smooth      PW
     Min         231     115     36                 5119     1802     314
     Max         232     116     37                 5120     1803     316
     Sum        1853     925    293                40957    14419    2521
 
     Using Slab Decomposition
 


     bravais-lattice index     =            0
     lattice parameter (alat)  =       8.4977  a.u.
     unit-cell volume          =     423.6931 (a.u.)^3
     number of atoms/cell      =            6
     number of atomic types    =            2
     number of electrons       =        56.00
     number of Kohn-Sham states=           34
     kinetic-energy cutoff     =      40.0000  Ry
     charge density cutoff     =     320.0000  Ry
     scf convergence threshold =      1.0E-08
     mixing beta               =       0.7000
     number of iterations used =            8  plain     mixing
     Exchange-correlation= SLA  PW   PSX  PSC
                           (   1   4  10   8   0   0   0)

     celldm(1)=   8.497720  celldm(2)=   0.000000  celldm(3)=   0.000000
     celldm(4)=   0.000000  celldm(5)=   0.000000  celldm(6)=   0.000000

     crystal axes: (cart. coord. in units of alat)
               a(1) = (   1.000000   0.000000   0.000000 )  
               a(2) = (   0.000000   1.000000   0.000000 )  
               a(3) = (   0.000000   0.000000   0.690469 )  

     reciprocal axes: (cart. coord. in units 2 pi/alat)
               b(1) = (  1.000000  0.000000  0.000000 )  
               b(2) = (  0.000000  1.000000  0.000000 )  
               b(3) = (  0.000000  0.000000  1.448291 )  


     PseudoPot. # 1 for Ru read from file:
     ./pseudos/ru_pbesol_v1.2.uspp.F.UPF
     MD5 check sum: f86cd6c1aa6b621eb21bb2137df4e461
     Pseudo is Ultrasoft + core correction, Zval = 16.0
     Generated by new atomic code, or converted to UPF format
     Using radial grid of  967 points,  6 beta functions with: 
                l(1) =   0
                l(2) =   0
                l(3) =   1
                l(4) =   1
                l(5) =   2
                l(6) =   2
     Q(r) pseudized with  8 coefficients,  rinner =    1.300   1.300   1.300
                                                       1.300   1.300

     PseudoPot. # 2 for O  read from file:
     ./pseudos/o_pbesol_v1.2.uspp.F.UPF
     MD5 check sum: 501638753501ef6325af9037351f7734
     Pseudo is Ultrasoft + core correction, Zval =  6.0
     Generated by new atomic code, or converted to UPF format
     Using radial grid of  737 points,  5 beta functions with: 
                l(1) =   0
                l(2) =   0
                l(3) =   1
                l(4) =   1
                l(5) =   2
     Q(r) pseudized with  8 coefficients,  rinner =    0.900   0.900   0.900
                                                       0.900   0.900

     atomic species   valence    mass     pseudopotential
     Ru               16.00   101.07000     Ru( 1.00)
     O                 6.00    15.99900     O ( 1.00)

     16 Sym. Ops., with inversion, found ( 8 have fractional translation)



   Cartesian axes

     site n.     atom                  positions (alat units)
         1        Ru     tau(   1) = (   0.0000000   0.0000000   0.0000000  )
         2        Ru     tau(   2) = (   0.5000000   0.5000000   0.3452344  )
         3        O      tau(   3) = (   0.3056792   0.3056792   0.0000000  )
         4        O      tau(   4) = (   0.6943208   0.6943208   0.0000000  )
         5        O      tau(   5) = (   0.8056792   0.1943208   0.3452344  )
         6        O      tau(   6) = (   0.1943208   0.8056792   0.3452344  )

     number of k points=    18  Gaussian smearing, width (Ry)=  0.0100
                       cart. coord. in units 2pi/alat
        k(    1) = (   0.0000000   0.0000000   0.0000000), wk =   0.0312500
        k(    2) = (   0.0000000   0.0000000   0.3620729), wk =   0.0625000
        k(    3) = (   0.0000000   0.0000000  -0.7241457), wk =   0.0312500
        k(    4) = (   0.0000000   0.2500000   0.0000000), wk =   0.1250000
        k(    5) = (   0.0000000   0.2500000   0.3620729), wk =   0.2500000
        k(    6) = (   0.0000000   0.2500000  -0.7241457), wk =   0.1250000
        k(    7) = (   0.0000000  -0.5000000   0.0000000), wk =   0.0625000
        k(    8) = (   0.0000000  -0.5000000   0.3620729), wk =   0.1250000
        k(    9) = (   0.0000000  -0.5000000  -0.7241457), wk =   0.0625000
        k(   10) = (   0.2500000   0.2500000   0.0000000), wk =   0.1250000
        k(   11) = (   0.2500000   0.2500000   0.3620729), wk =   0.2500000
        k(   12) = (   0.2500000   0.2500000  -0.7241457), wk =   0.1250000
        k(   13) = (   0.2500000  -0.5000000   0.0000000), wk =   0.1250000
        k(   14) = (   0.2500000  -0.5000000   0.3620729), wk =   0.2500000
        k(   15) = (   0.2500000  -0.5000000  -0.7241457), wk =   0.1250000
        k(   16) = (  -0.5000000  -0.5000000   0.0000000), wk =   0.0312500
        k(   17) = (  -0.5000000  -0.5000000   0.3620729), wk =   0.0625000
        k(   18) = (  -0.5000000  -0.5000000  -0.7241457), wk =   0.0312500

     Dense  grid:    40957 G-vectors     FFT dimensions: (  50,  50,  36)

     Smooth grid:    14419 G-vectors     FFT dimensions: (  36,  36,  24)

     Estimated max dynamical RAM per process >      10.95 MB

     Estimated total dynamical RAM >     320.44 MB

     Check: negative core charge=   -0.000001

     Initial potential from superposition of free atoms

     starting charge      54.0000, renormalised to      56.0000

     negative rho (up, down):  1.472E-01 0.000E+00
     Starting wfcs are   42 randomized atomic wfcs

     total cpu time spent up to now is        0.4 secs

     Self-consistent Calculation

     iteration #  1     ecut=    40.00 Ry     beta= 0.70
     Davidson diagonalization with overlap
     ethr =  1.00E-02,  avg # of iterations =  2.0

     negative rho (up, down):  1.500E-01 0.000E+00

     total cpu time spent up to now is        0.5 secs

     total energy              =    -515.50965996 Ry
     estimated scf accuracy    <       3.16544793 Ry

     iteration #  2     ecut=    40.00 Ry     beta= 0.70
     Davidson diagonalization with overlap
     ethr =  5.65E-03,  avg # of iterations =  2.6

     negative rho (up, down):  1.489E-01 0.000E+00

     total cpu time spent up to now is        0.7 secs

     total energy              =    -514.33256652 Ry
     estimated scf accuracy    <      17.76265474 Ry

     iteration #  3     ecut=    40.00 Ry     beta= 0.70
     Davidson diagonalization with overlap
     ethr =  5.65E-03,  avg # of iterations =  2.0

     negative rho (up, down):  1.495E-01 0.000E+00

     total cpu time spent up to now is        0.8 secs

     total energy              =    -517.28243891 Ry
     estimated scf accuracy    <       0.18441422 Ry

     iteration #  4     ecut=    40.00 Ry     beta= 0.70
     Davidson diagonalization with overlap
     ethr =  3.29E-04,  avg # of iterations =  1.3

     negative rho (up, down):  1.500E-01 0.000E+00

     total cpu time spent up to now is        1.0 secs

     total energy              =    -517.30376498 Ry
     estimated scf accuracy    <       0.00416165 Ry

     iteration #  5     ecut=    40.00 Ry     beta= 0.70
     Davidson diagonalization with overlap
     ethr =  7.43E-06,  avg # of iterations =  2.2

     negative rho (up, down):  1.507E-01 0.000E+00

     total cpu time spent up to now is        1.1 secs

     total energy              =    -517.30474335 Ry
     estimated scf accuracy    <       0.00011737 Ry

     iteration #  6     ecut=    40.00 Ry     beta= 0.70
     Davidson diagonalization with overlap
     ethr =  2.10E-07,  avg # of iterations =  3.2

     negative rho (up, down):  1.510E-01 0.000E+00

     total cpu time spent up to now is        1.3 secs

     total energy              =    -517.30474893 Ry
     estimated scf accuracy    <       0.00005009 Ry

     iteration #  7     ecut=    40.00 Ry     beta= 0.70
     Davidson diagonalization with overlap
     ethr =  8.94E-08,  avg # of iterations =  2.0

     negative rho (up, down):  1.512E-01 0.000E+00

     total cpu time spent up to now is        1.4 secs

     total energy              =    -517.30475835 Ry
     estimated scf accuracy    <       0.00000061 Ry

     iteration #  8     ecut=    40.00 Ry     beta= 0.70
     Davidson diagonalization with overlap
     ethr =  1.08E-09,  avg # of iterations =  3.3

     negative rho (up, down):  1.512E-01 0.000E+00

     total cpu time spent up to now is        1.6 secs

     total energy              =    -517.30475854 Ry
     estimated scf accuracy    <       0.00000008 Ry

     iteration #  9     ecut=    40.00 Ry     beta= 0.70
     Davidson diagonalization with overlap
     ethr =  1.41E-10,  avg # of iterations =  2.1

     negative rho (up, down):  1.512E-01 0.000E+00

     total cpu time spent up to now is        1.7 secs

     total energy              =    -517.30475856 Ry
     estimated scf accuracy    <       0.00000003 Ry

     iteration # 10     ecut=    40.00 Ry     beta= 0.70
     Davidson diagonalization with overlap
     ethr =  4.85E-11,  avg # of iterations =  2.0

     negative rho (up, down):  1.512E-01 0.000E+00

     total cpu time spent up to now is        1.8 secs

     End of self-consistent calculation

          k = 0.0000 0.0000 0.0000 (  1803 PWs)   bands (ev):

   -60.4620 -60.4552 -30.7383 -30.7383 -30.3312 -30.3312 -30.3300 -30.3040
    -7.1871  -6.1125  -5.1293  -5.1293   4.4452   4.5505   5.6818   6.0992
     6.0992   8.6901   8.7012   8.7012  10.1703  10.6178  10.6178  11.1732
    11.4195  11.5445  11.6239  11.6239  12.0667  14.5046  14.7511  17.5100
    17.5100  18.8292

          k = 0.0000 0.0000 0.3621 (  1800 PWs)   bands (ev):

   -60.4555 -60.4506 -30.7303 -30.7303 -30.4207 -30.4026 -30.3168 -30.3168
    -6.6812  -5.8724  -5.4052  -5.4052   4.9952   5.3070   6.3269   6.3269
     6.3311   7.3329   8.3552   9.0251   9.0251   9.3697   9.3697  10.2439
    11.8393  12.1414  12.4501  13.0182  13.0182  14.2019  15.4865  16.5845
    16.5845  17.7552

          k = 0.0000 0.0000-0.7241 (  1804 PWs)   bands (ev):

   -60.4476 -60.4476 -30.7223 -30.7223 -30.5049 -30.5049 -30.3023 -30.3023
    -5.8880  -5.8880  -5.6666  -5.6666   5.6518   5.6518   6.8088   6.8088
     7.1018   7.1018   8.0503   8.0503   8.0936   8.0936   9.6903   9.6903
    12.3639  12.3639  12.9594  12.9594  13.8685  13.8685  16.0520  16.0520
    16.2681  16.2681

          k = 0.0000 0.2500 0.0000 (  1823 PWs)   bands (ev):

   -60.4610 -60.4562 -30.7369 -30.7369 -30.3334 -30.3333 -30.3262 -30.3078
    -6.9568  -6.0759  -5.3953  -5.2642   4.8811   5.0416   6.1217   6.1470
     6.1688   7.9817   8.1316   8.5506   9.3621   9.4474  10.1611  10.9111
    11.9386  12.0812  12.2867  12.2982  12.5132  14.3161  15.3380  17.2150
    17.2738  18.4681

          k = 0.0000 0.2500 0.3621 (  1815 PWs)   bands (ev):

   -60.4548 -60.4514 -30.7305 -30.7304 -30.4176 -30.4053 -30.3175 -30.3173
    -6.5088  -5.8154  -5.6089  -5.4863   5.3659   5.5600   6.1480   6.3025
     7.0653   7.1436   7.4702   8.6443   8.8049   9.2861   9.5066  10.5064
    11.5319  12.6055  12.7176  12.7244  13.2945  13.9690  15.8072  15.9317
    16.6023  18.0203

          k = 0.0000 0.2500-0.7241 (  1812 PWs)   bands (ev):

   -60.4476 -60.4476 -30.7247 -30.7247 -30.5032 -30.5032 -30.3020 -30.3020
    -6.0192  -6.0192  -5.5218  -5.5218   5.5979   5.5979   6.2004   6.2004
     7.5603   7.5603   8.1419   8.1419   8.8761   8.8761   9.3617   9.3617
    12.2580  12.2580  12.4076  12.4076  14.0240  14.0240  15.2455  15.2455
    17.3834  17.3834

          k = 0.0000-0.5000 0.0000 (  1790 PWs)   bands (ev):

   -60.4585 -60.4585 -30.7354 -30.7354 -30.3355 -30.3355 -30.3169 -30.3169
    -6.3913  -6.3913  -5.5191  -5.5191   5.6407   5.6407   6.2208   6.2208
     7.2003   7.2003   7.4863   7.4863   8.6854   8.6854  10.3668  10.3668
    12.4754  12.4754  12.6620  12.6620  13.3622  13.3622  16.9535  16.9535
    17.0553  17.0553

          k = 0.0000-0.5000 0.3621 (  1812 PWs)   bands (ev):

   -60.4531 -60.4531 -30.7306 -30.7306 -30.4112 -30.4112 -30.3180 -30.3180
    -6.0746  -6.0746  -5.6623  -5.6623   5.9555   5.9555   6.3262   6.3262
     6.7135   6.7135   7.9800   7.9800   8.5380   8.5380  10.1576  10.1576
    12.1052  12.1052  12.9773  12.9773  13.6269  13.6269  15.5517  15.5517
    17.5101  17.5101

          k = 0.0000-0.5000-0.7241 (  1820 PWs)   bands (ev):

   -60.4476 -60.4476 -30.7269 -30.7269 -30.5015 -30.5015 -30.3017 -30.3017
    -6.0984  -6.0984  -5.4289  -5.4289   5.3948   5.3948   6.1584   6.1584
     7.6926   7.6926   8.5161   8.5161   8.6218   8.6218  10.0975  10.0975
    11.2561  11.2561  12.4300  12.4300  14.1137  14.1137  14.9343  14.9343
    18.0106  18.0106

          k = 0.2500 0.2500 0.0000 (  1804 PWs)   bands (ev):

   -60.4603 -60.4568 -30.7395 -30.7355 -30.3355 -30.3311 -30.3235 -30.3104
    -6.8220  -6.1274  -5.5563  -5.2077   4.4998   5.7025   6.0537   6.2216
     6.4889   7.2515   8.5417   8.5641   9.3046   9.5608   9.8149  10.6388
    11.5959  11.6421  12.5642  12.6790  12.8563  14.1627  15.6357  16.9500
    17.5024  17.9561

          k = 0.2500 0.2500 0.3621 (  1815 PWs)   bands (ev):

   -60.4543 -60.4519 -30.7312 -30.7306 -30.4161 -30.4067 -30.3180 -30.3170
    -6.3962  -5.8062  -5.7505  -5.4720   5.1529   5.9175   5.9459   6.4329
     6.7586   7.3763   7.8791   8.1995   8.8388   9.2718   9.6949  10.4141
    11.6112  12.1993  12.6881  13.1301  13.2772  13.8101  15.4997  16.4045
    16.5807  17.8303

          k = 0.2500 0.2500-0.7241 (  1818 PWs)   bands (ev):

   -60.4476 -60.4476 -30.7269 -30.7229 -30.5058 -30.5005 -30.3028 -30.3017
    -6.1032  -5.8198  -5.7239  -5.4238   5.4159   6.0310   6.0690   6.1377
     6.5689   8.0576   8.1996   8.3411   8.6689   9.2923   9.4188   9.7836
    11.7722  12.4068  12.4284  12.7085  13.2739  14.2578  14.8346  16.0395
    16.7044  17.8625

          k = 0.2500-0.5000 0.0000 (  1798 PWs)   bands (ev):

   -60.4585 -60.4585 -30.7381 -30.7381 -30.3332 -30.3332 -30.3169 -30.3169
    -6.4747  -6.4747  -5.3937  -5.3937   4.9536   4.9536   6.1069   6.1069
     7.4847   7.4847   8.5153   8.5153   9.0434   9.0434   9.8454   9.8454
    12.1513  12.1513  12.1922  12.1922  13.6193  13.6193  16.7495  16.7495
    17.2389  17.2389

          k = 0.2500-0.5000 0.3621 (  1808 PWs)   bands (ev):

   -60.4530 -60.4530 -30.7313 -30.7313 -30.4113 -30.4113 -30.3176 -30.3176
    -6.1206  -6.1206  -5.5949  -5.5949   5.4817   5.4817   6.0136   6.0136
     7.2934   7.2934   8.3936   8.3936   8.8307   8.8307   9.7950   9.7950
    12.2590  12.2590  12.6808  12.6808  13.4474  13.4474  15.9898  15.9898
    17.2270  17.2270

          k = 0.2500-0.5000-0.7241 (  1812 PWs)   bands (ev):

   -60.4476 -60.4476 -30.7252 -30.7252 -30.5031 -30.5031 -30.3024 -30.3024
    -6.0014  -6.0014  -5.5281  -5.5281   5.5682   5.5682   6.0965   6.0965
     7.2012   7.2012   8.1613   8.1613   9.1463   9.1463  10.2346  10.2346
    11.7576  11.7576  12.4377  12.4377  13.7826  13.7826  15.3017  15.3017
    17.5364  17.5364

          k =-0.5000-0.5000 0.0000 (  1784 PWs)   bands (ev):

   -60.4585 -60.4585 -30.7407 -30.7407 -30.3310 -30.3310 -30.3169 -30.3169
    -6.5429  -6.5429  -5.2825  -5.2825   4.5060   4.5060   6.0085   6.0085
     8.3039   8.3039   8.3987   8.3987   9.4768   9.4768  10.0190  10.0190
    11.5466  11.5466  11.6620  11.6620  13.8182  13.8182  16.4932  16.4932
    17.4949  17.4949

          k =-0.5000-0.5000 0.3621 (  1820 PWs)   bands (ev):

   -60.4531 -60.4531 -30.7320 -30.7320 -30.4115 -30.4115 -30.3172 -30.3172
    -6.1574  -6.1574  -5.5364  -5.5364   5.1614   5.1614   5.8305   5.8305
     7.8598   7.8598   8.7192   8.7192   8.7843   8.7843   9.6618   9.6618
    12.2579  12.2579  12.5845  12.5845  13.2047  13.2047  16.5710  16.5710
    16.7569  16.7569

          k =-0.5000-0.5000-0.7241 (  1808 PWs)   bands (ev):

   -60.4475 -60.4475 -30.7234 -30.7234 -30.5046 -30.5046 -30.3032 -30.3032
    -5.7796  -5.7796  -5.7522  -5.7522   5.8776   5.8776   6.0010   6.0010
     6.6798   6.6798   8.0835   8.0835   9.3013   9.3013  10.4431  10.4431
    12.4423  12.4423  12.4654  12.4654  13.1878  13.1878  16.0194  16.0194
    16.7293  16.7293

     the Fermi energy is    13.0329 ev

!    total energy              =    -517.30475857 Ry
     estimated scf accuracy    <          2.2E-10 Ry
     smearing contrib. (-TS)   =      -0.00175984 Ry
     internal energy E=F+TS    =    -517.30299873 Ry

     The total energy is F=E-TS. E is the sum of the following terms:
     one-electron contribution =    -165.50404192 Ry
     hartree contribution      =     114.47101151 Ry
     xc contribution           =     -79.94824060 Ry
     ewald contribution        =    -386.32172771 Ry

     convergence has been achieved in  10 iterations

     negative rho (up, down):  1.512E-01 0.000E+00

     Forces acting on atoms (cartesian axes, Ry/au):

     atom    1 type  1   force =     0.00000000    0.00000000    0.00000000
     atom    2 type  1   force =     0.00000000    0.00000000    0.00000000
     atom    3 type  2   force =    -0.00000150   -0.00000150   -0.00000000
     atom    4 type  2   force =     0.00000150    0.00000150   -0.00000000
     atom    5 type  2   force =    -0.00000150    0.00000150    0.00000000
     atom    6 type  2   force =     0.00000150   -0.00000150    0.00000000

     Total force =     0.000004     Total SCF correction =     0.000007
     SCF correction compared to forces is large: reduce conv_thr to get better values


     Computing stress (Cartesian axis) and pressure


     negative rho (up, down):  1.512E-01 0.000E+00
          total   stress  (Ry/bohr**3)                   (kbar)     P=      -46.13
  -0.00027305   0.00000000   0.00000000          -40.17        0.00        0.00
   0.00000000  -0.00027305   0.00000000            0.00      -40.17        0.00
   0.00000000   0.00000000  -0.00039473            0.00        0.00      -58.07


     Writing all to output data dir ./RuO2.save/ :
     XML data file, charge density, pseudopotentials, collected wavefunctions
 
     init_run     :      0.14s CPU      0.18s WALL (       1 calls)
     electrons    :      1.44s CPU      1.51s WALL (       1 calls)
     forces       :      0.03s CPU      0.03s WALL (       1 calls)
     stress       :      0.09s CPU      0.09s WALL (       1 calls)

     Called by init_run:
     wfcinit      :      0.04s CPU      0.04s WALL (       1 calls)
     potinit      :      0.01s CPU      0.01s WALL (       1 calls)
     hinit0       :      0.05s CPU      0.07s WALL (       1 calls)

     Called by electrons:
     c_bands      :      1.07s CPU      1.11s WALL (      10 calls)
     sum_band     :      0.23s CPU      0.24s WALL (      10 calls)
     v_of_rho     :      0.06s CPU      0.07s WALL (      11 calls)
     newd         :      0.07s CPU      0.07s WALL (      11 calls)
     mix_rho      :      0.01s CPU      0.01s WALL (      10 calls)

     Called by c_bands:
     init_us_2    :      0.02s CPU      0.02s WALL (     115 calls)
     cegterg      :      0.95s CPU      0.97s WALL (      50 calls)

     Called by *egterg:
     cdiaghg      :      0.21s CPU      0.22s WALL (     174 calls)
     h_psi        :      0.58s CPU      0.59s WALL (     179 calls)
     s_psi        :      0.04s CPU      0.04s WALL (     179 calls)
     g_psi        :      0.00s CPU      0.00s WALL (     124 calls)

     Called by h_psi:
     h_psi:calbec :      0.06s CPU      0.06s WALL (     179 calls)
     vloc_psi     :      0.47s CPU      0.49s WALL (     179 calls)
     add_vuspsi   :      0.04s CPU      0.04s WALL (     179 calls)

     General routines
     calbec       :      0.09s CPU      0.09s WALL (     254 calls)
     fft          :      0.04s CPU      0.05s WALL (     166 calls)
     ffts         :      0.00s CPU      0.00s WALL (      21 calls)
     fftw         :      0.49s CPU      0.51s WALL (   10494 calls)
     interpolate  :      0.00s CPU      0.00s WALL (      11 calls)
 
     Parallel routines
 
     PWSCF        :      1.84s CPU      2.03s WALL

 
   This run was terminated on:  21: 3: 6  26Jun2024            

=------------------------------------------------------------------------------=
   JOB DONE.
=------------------------------------------------------------------------------=
